 Entering Gaussian System, Link 0=g16
 Input=b_18_v2_opt.com
 Output=b_18_v2_opt.log
 Initial command:
 /software/spackages_prod/apps/linux-ubuntu20.04-zen2/gcc-10.3.0/gaussian_sse4_kcl-16-C-6zka5bo66eu7gufawqnzn2az3c6hgggd/g16/l1.exe "/scratch/users/k2255489/paper_fix_dimers/b_18_v2/Gau-801953.inp" -scrdir="/scratch/users/k2255489/paper_fix_dimers/b_18_v2/"
 Entering Link 1 = /software/spackages_prod/apps/linux-ubuntu20.04-zen2/gcc-10.3.0/gaussian_sse4_kcl-16-C-6zka5bo66eu7gufawqnzn2az3c6hgggd/g16/l1.exe PID=    801984.
  
 Copyright (c) 1988-2019, Gaussian, Inc.  All Rights Reserved.
  
 This is part of the Gaussian(R) 16 program.  It is based on
 the Gaussian(R) 09 system (copyright 2009, Gaussian, Inc.),
 the Gaussian(R) 03 system (copyright 2003, Gaussian, Inc.),
 the Gaussian(R) 98 system (copyright 1998, Gaussian, Inc.),
 the Gaussian(R) 94 system (copyright 1995, Gaussian, Inc.),
 the Gaussian 92(TM) system (copyright 1992, Gaussian, Inc.),
 the Gaussian 90(TM) system (copyright 1990, Gaussian, Inc.),
 the Gaussian 88(TM) system (copyright 1988, Gaussian, Inc.),
 the Gaussian 86(TM) system (copyright 1986, Carnegie Mellon
 University), and the Gaussian 82(TM) system (copyright 1983,
 Carnegie Mellon University). Gaussian is a federally registered
 trademark of Gaussian, Inc.
  
 This software contains proprietary and confidential information,
 including trade secrets, belonging to Gaussian, Inc.
  
 This software is provided under written license and may be
 used, copied, transmitted, or stored only in accord with that
 written license.
  
 The following legend is applicable only to US Government
 contracts under FAR:
  
                    RESTRICTED RIGHTS LEGEND
  
 Use, reproduction and disclosure by the US Government is
 subject to restrictions as set forth in subparagraphs (a)
 and (c) of the Commercial Computer Software - Restricted
 Rights clause in FAR 52.227-19.
  
 Gaussian, Inc.
 340 Quinnipiac St., Bldg. 40, Wallingford CT 06492
  
  
 ---------------------------------------------------------------
 Warning -- This program may not be used in any manner that
 competes with the business of Gaussian, Inc. or will provide
 assistance to any competitor of Gaussian, Inc.  The licensee
 of this program is prohibited from giving any competitor of
 Gaussian, Inc. access to this program.  By using this program,
 the user acknowledges that Gaussian, Inc. is engaged in the
 business of creating and licensing software in the field of
 computational chemistry and represents and warrants to the
 licensee that it is not a competitor of Gaussian, Inc. and that
 it will not use this program in any manner prohibited above.
 ---------------------------------------------------------------
  

 Cite this work as:
 Gaussian 16, Revision C.01,
 M. J. Frisch, G. W. Trucks, H. B. Schlegel, G. E. Scuseria, 
 M. A. Robb, J. R. Cheeseman, G. Scalmani, V. Barone, 
 G. A. Petersson, H. Nakatsuji, X. Li, M. Caricato, A. V. Marenich, 
 J. Bloino, B. G. Janesko, R. Gomperts, B. Mennucci, H. P. Hratchian, 
 J. V. Ortiz, A. F. Izmaylov, J. L. Sonnenberg, D. Williams-Young, 
 F. Ding, F. Lipparini, F. Egidi, J. Goings, B. Peng, A. Petrone, 
 T. Henderson, D. Ranasinghe, V. G. Zakrzewski, J. Gao, N. Rega, 
 G. Zheng, W. Liang, M. Hada, M. Ehara, K. Toyota, R. Fukuda, 
 J. Hasegawa, M. Ishida, T. Nakajima, Y. Honda, O. Kitao, H. Nakai, 
 T. Vreven, K. Throssell, J. A. Montgomery, Jr., J. E. Peralta, 
 F. Ogliaro, M. J. Bearpark, J. J. Heyd, E. N. Brothers, K. N. Kudin, 
 V. N. Staroverov, T. A. Keith, R. Kobayashi, J. Normand, 
 K. Raghavachari, A. P. Rendell, J. C. Burant, S. S. Iyengar, 
 J. Tomasi, M. Cossi, J. M. Millam, M. Klene, C. Adamo, R. Cammi, 
 J. W. Ochterski, R. L. Martin, K. Morokuma, O. Farkas, 
 J. B. Foresman, and D. J. Fox, Gaussian, Inc., Wallingford CT, 2019.
 
 ******************************************
 Gaussian 16:  ES64L-G16RevC.01  3-Jul-2019
                25-Mar-2024 
 ******************************************
 %NProc=4
 Will use up to    4 processors via shared memory.
 %Chk=b_18_v2_opt.chk
 ---------------------------
 #p B3LYP/6-31G* opt, nosymm
 ---------------------------
 1/18=20,19=15,26=3,38=1/1,3;
 2/9=110,12=2,15=1,17=6,18=5,40=1/2;
 3/5=1,6=6,7=1,11=2,25=1,30=1,71=1,74=-5/1,2,3;
 4//1;
 5/5=2,38=5/2;
 6/7=2,8=2,9=2,10=2,28=1/1;
 7/30=1/1,2,3,16;
 1/18=20,19=15,26=3/3(2);
 2/9=110,15=1/2;
 99//99;
 2/9=110,15=1/2;
 3/5=1,6=6,7=1,11=2,25=1,30=1,71=1,74=-5/1,2,3;
 4/5=5,16=3,69=1/1;
 5/5=2,38=5/2;
 7/30=1/1,2,3,16;
 1/18=20,19=15,26=3/3(-5);
 2/9=110,15=1/2;
 6/7=2,8=2,9=2,10=2,19=2,28=1/1;
 99/9=1/99;
 Leave Link    1 at Mon Mar 25 11:28:14 2024, MaxMem=           0 cpu:               0.3 elap:               0.3
 (Enter /software/spackages_prod/apps/linux-ubuntu20.04-zen2/gcc-10.3.0/gaussian_sse4_kcl-16-C-6zka5bo66eu7gufawqnzn2az3c6hgggd/g16/l101.exe)
 --------------------------------------------------------------
 b_18_v2 opt Smile String: COc1cc2cc(-c3nccc4nsnc34)n(C)c2cc1OC
 --------------------------------------------------------------
 Symbolic Z-matrix:
 Charge =  0 Multiplicity = 1
 C                     4.60565   2.126     1.59854 
 O                     4.4349    0.85789   0.90282 
 C                     3.13926   0.4757    0.59308 
 C                     2.00113   1.1934    0.88784 
 C                     0.73708   0.68488   0.51251 
 C                    -0.5908    1.15615   0.65866 
 C                    -1.45395   0.21606   0.08499 
 C                    -2.89362   0.29452   0.00861 
 N                    -3.6012   -0.69137  -0.54806 
 C                    -4.97176  -0.64363  -0.63151 
 C                    -5.74744   0.38454  -0.16791 
 C                    -5.06576   1.46863   0.43813 
 N                    -5.62269   2.58206   0.96272 
 S                    -4.38259   3.51511   1.53546 
 N                    -3.10892   2.53427   1.13446 
 C                    -3.61357   1.44096   0.53733 
 N                    -0.66326  -0.84554  -0.42276 
 C                    -1.09142  -2.07181  -1.11973 
 C                     0.66043  -0.56328  -0.16509 
 C                     1.81573  -1.29899  -0.46837 
 C                     3.0453   -0.78653  -0.09373 
 O                     4.25824  -1.40095  -0.32684 
 C                     4.2474   -2.68438  -1.01876 
 H                     5.682     2.227     1.73919 
 H                     4.10259   2.12349   2.57398 
 H                     4.22853   2.9679    1.00393 
 H                     2.06266   2.14172   1.4031 
 H                    -0.91691   2.06956   1.11991 
 H                    -5.42922  -1.50392  -1.10564 
 H                    -6.82409   0.38502  -0.25152 
 H                    -0.75923  -2.9527   -0.55856 
 H                    -0.65602  -2.10002  -2.1252 
 H                    -2.1773   -2.0452   -1.17611 
 H                     1.74502  -2.24542  -0.98351 
 H                     3.81693  -2.59623  -2.02401 
 H                     3.6909   -3.44206  -0.45321 
 H                     5.29602  -2.97281  -1.08992 
 
 ITRead=  0  0  0  0  0  0  0  0  0  0  0  0  0  0  0  0  0  0  0  0
 ITRead=  0  0  0  0  0  0  0  0  0  0  0  0  0  0  0  0  0
 MicOpt= -1 -1 -1 -1 -1 -1 -1 -1 -1 -1 -1 -1 -1 -1 -1 -1 -1 -1 -1 -1
 MicOpt= -1 -1 -1 -1 -1 -1 -1 -1 -1 -1 -1 -1 -1 -1 -1 -1 -1
 NAtoms=     37 NQM=       37 NQMF=       0 NMMI=      0 NMMIF=      0
                NMic=       0 NMicF=      0.
                    Isotopes and Nuclear Properties:
 (Nuclear quadrupole moments (NQMom) in fm**2, nuclear magnetic moments (NMagM)
  in nuclear magnetons)

  Atom         1           2           3           4           5           6           7           8           9          10
 IAtWgt=          12          16          12          12          12          12          12          12          14          12
 AtmWgt=  12.0000000  15.9949146  12.0000000  12.0000000  12.0000000  12.0000000  12.0000000  12.0000000  14.0030740  12.0000000
 NucSpn=           0           0           0           0           0           0           0           0           2           0
 AtZEff=  -0.0000000  -0.0000000  -0.0000000  -0.0000000  -0.0000000  -0.0000000  -0.0000000  -0.0000000  -0.0000000  -0.0000000
 NQMom=    0.0000000   0.0000000   0.0000000   0.0000000   0.0000000   0.0000000   0.0000000   0.0000000   2.0440000   0.0000000
 NMagM=    0.0000000   0.0000000   0.0000000   0.0000000   0.0000000   0.0000000   0.0000000   0.0000000   0.4037610   0.0000000
 AtZNuc=   6.0000000   8.0000000   6.0000000   6.0000000   6.0000000   6.0000000   6.0000000   6.0000000   7.0000000   6.0000000

  Atom        11          12          13          14          15          16          17          18          19          20
 IAtWgt=          12          12          14          32          14          12          14          12          12          12
 AtmWgt=  12.0000000  12.0000000  14.0030740  31.9720718  14.0030740  12.0000000  14.0030740  12.0000000  12.0000000  12.0000000
 NucSpn=           0           0           2           0           2           0           2           0           0           0
 AtZEff=  -0.0000000  -0.0000000  -0.0000000  -0.0000000  -0.0000000  -0.0000000  -0.0000000  -0.0000000  -0.0000000  -0.0000000
 NQMom=    0.0000000   0.0000000   2.0440000   0.0000000   2.0440000   0.0000000   2.0440000   0.0000000   0.0000000   0.0000000
 NMagM=    0.0000000   0.0000000   0.4037610   0.0000000   0.4037610   0.0000000   0.4037610   0.0000000   0.0000000   0.0000000
 AtZNuc=   6.0000000   6.0000000   7.0000000  16.0000000   7.0000000   6.0000000   7.0000000   6.0000000   6.0000000   6.0000000

  Atom        21          22          23          24          25          26          27          28          29          30
 IAtWgt=          12          16          12           1           1           1           1           1           1           1
 AtmWgt=  12.0000000  15.9949146  12.0000000   1.0078250   1.0078250   1.0078250   1.0078250   1.0078250   1.0078250   1.0078250
 NucSpn=           0           0           0           1           1           1           1           1           1           1
 AtZEff=  -0.0000000  -0.0000000  -0.0000000  -0.0000000  -0.0000000  -0.0000000  -0.0000000  -0.0000000  -0.0000000  -0.0000000
 NQMom=    0.0000000   0.0000000   0.0000000   0.0000000   0.0000000   0.0000000   0.0000000   0.0000000   0.0000000   0.0000000
 NMagM=    0.0000000   0.0000000   0.0000000   2.7928460   2.7928460   2.7928460   2.7928460   2.7928460   2.7928460   2.7928460
 AtZNuc=   6.0000000   8.0000000   6.0000000   1.0000000   1.0000000   1.0000000   1.0000000   1.0000000   1.0000000   1.0000000

  Atom        31          32          33          34          35          36          37
 IAtWgt=           1           1           1           1           1           1           1
 AtmWgt=   1.0078250   1.0078250   1.0078250   1.0078250   1.0078250   1.0078250   1.0078250
 NucSpn=           1           1           1           1           1           1           1
 AtZEff=  -0.0000000  -0.0000000  -0.0000000  -0.0000000  -0.0000000  -0.0000000  -0.0000000
 NQMom=    0.0000000   0.0000000   0.0000000   0.0000000   0.0000000   0.0000000   0.0000000
 NMagM=    2.7928460   2.7928460   2.7928460   2.7928460   2.7928460   2.7928460   2.7928460
 AtZNuc=   1.0000000   1.0000000   1.0000000   1.0000000   1.0000000   1.0000000   1.0000000
 Leave Link  101 at Mon Mar 25 11:28:15 2024, MaxMem=   104857600 cpu:               0.6 elap:               0.6
 (Enter /software/spackages_prod/apps/linux-ubuntu20.04-zen2/gcc-10.3.0/gaussian_sse4_kcl-16-C-6zka5bo66eu7gufawqnzn2az3c6hgggd/g16/l103.exe)

 GradGradGradGradGradGradGradGradGradGradGradGradGradGradGradGradGradGrad
 Berny optimization.
 Initialization pass.
                           ----------------------------
                           !    Initial Parameters    !
                           ! (Angstroms and Degrees)  !
 --------------------------                            --------------------------
 ! Name  Definition              Value          Derivative Info.                !
 --------------------------------------------------------------------------------
 ! R1    R(1,2)                  1.4565         estimate D2E/DX2                !
 ! R2    R(1,24)                 1.0902         estimate D2E/DX2                !
 ! R3    R(1,25)                 1.0975         estimate D2E/DX2                !
 ! R4    R(1,26)                 1.0975         estimate D2E/DX2                !
 ! R5    R(2,3)                  1.3859         estimate D2E/DX2                !
 ! R6    R(3,4)                  1.3774         estimate D2E/DX2                !
 ! R7    R(3,21)                 1.4401         estimate D2E/DX2                !
 ! R8    R(4,5)                  1.4133         estimate D2E/DX2                !
 ! R9    R(4,27)                 1.081          estimate D2E/DX2                !
 ! R10   R(5,6)                  1.4166         estimate D2E/DX2                !
 ! R11   R(5,19)                 1.4223         estimate D2E/DX2                !
 ! R12   R(6,7)                  1.3992         estimate D2E/DX2                !
 ! R13   R(6,28)                 1.074          estimate D2E/DX2                !
 ! R14   R(7,8)                  1.4438         estimate D2E/DX2                !
 ! R15   R(7,17)                 1.4177         estimate D2E/DX2                !
 ! R16   R(8,9)                  1.3351         estimate D2E/DX2                !
 ! R17   R(8,16)                 1.4533         estimate D2E/DX2                !
 ! R18   R(9,10)                 1.3739         estimate D2E/DX2                !
 ! R19   R(10,11)                1.3688         estimate D2E/DX2                !
 ! R20   R(10,29)                1.0836         estimate D2E/DX2                !
 ! R21   R(11,12)                1.4168         estimate D2E/DX2                !
 ! R22   R(11,30)                1.0799         estimate D2E/DX2                !
 ! R23   R(12,13)                1.351          estimate D2E/DX2                !
 ! R24   R(12,16)                1.4558         estimate D2E/DX2                !
 ! R25   R(13,14)                1.6542         estimate D2E/DX2                !
 ! R26   R(14,15)                1.6568         estimate D2E/DX2                !
 ! R27   R(15,16)                1.3441         estimate D2E/DX2                !
 ! R28   R(17,18)                1.4741         estimate D2E/DX2                !
 ! R29   R(17,19)                1.3778         estimate D2E/DX2                !
 ! R30   R(18,31)                1.096          estimate D2E/DX2                !
 ! R31   R(18,32)                1.0961         estimate D2E/DX2                !
 ! R32   R(18,33)                1.0877         estimate D2E/DX2                !
 ! R33   R(19,20)                1.4028         estimate D2E/DX2                !
 ! R34   R(20,21)                1.3838         estimate D2E/DX2                !
 ! R35   R(20,34)                1.0799         estimate D2E/DX2                !
 ! R36   R(21,22)                1.3795         estimate D2E/DX2                !
 ! R37   R(22,23)                1.4581         estimate D2E/DX2                !
 ! R38   R(23,35)                1.0971         estimate D2E/DX2                !
 ! R39   R(23,36)                1.0971         estimate D2E/DX2                !
 ! R40   R(23,37)                1.0899         estimate D2E/DX2                !
 ! A1    A(2,1,24)             104.9537         estimate D2E/DX2                !
 ! A2    A(2,1,25)             111.6426         estimate D2E/DX2                !
 ! A3    A(2,1,26)             111.6422         estimate D2E/DX2                !
 ! A4    A(24,1,25)            109.7605         estimate D2E/DX2                !
 ! A5    A(24,1,26)            109.7597         estimate D2E/DX2                !
 ! A6    A(25,1,26)            109.0119         estimate D2E/DX2                !
 ! A7    A(1,2,3)              117.1595         estimate D2E/DX2                !
 ! A8    A(2,3,4)              125.5172         estimate D2E/DX2                !
 ! A9    A(2,3,21)             114.1614         estimate D2E/DX2                !
 ! A10   A(4,3,21)             120.3213         estimate D2E/DX2                !
 ! A11   A(3,4,5)              119.6514         estimate D2E/DX2                !
 ! A12   A(3,4,27)             120.8007         estimate D2E/DX2                !
 ! A13   A(5,4,27)             119.5479         estimate D2E/DX2                !
 ! A14   A(4,5,6)              133.7339         estimate D2E/DX2                !
 ! A15   A(4,5,19)             119.3732         estimate D2E/DX2                !
 ! A16   A(6,5,19)             106.8929         estimate D2E/DX2                !
 ! A17   A(5,6,7)              108.2056         estimate D2E/DX2                !
 ! A18   A(5,6,28)             127.726          estimate D2E/DX2                !
 ! A19   A(7,6,28)             124.0682         estimate D2E/DX2                !
 ! A20   A(6,7,8)              126.8892         estimate D2E/DX2                !
 ! A21   A(6,7,17)             107.8111         estimate D2E/DX2                !
 ! A22   A(8,7,17)             125.2994         estimate D2E/DX2                !
 ! A23   A(7,8,9)              120.6892         estimate D2E/DX2                !
 ! A24   A(7,8,16)             121.1694         estimate D2E/DX2                !
 ! A25   A(9,8,16)             118.141          estimate D2E/DX2                !
 ! A26   A(8,9,10)             121.8936         estimate D2E/DX2                !
 ! A27   A(9,10,11)            124.8065         estimate D2E/DX2                !
 ! A28   A(9,10,29)            114.8425         estimate D2E/DX2                !
 ! A29   A(11,10,29)           120.351          estimate D2E/DX2                !
 ! A30   A(10,11,12)           116.5494         estimate D2E/DX2                !
 ! A31   A(10,11,30)           122.6209         estimate D2E/DX2                !
 ! A32   A(12,11,30)           120.8297         estimate D2E/DX2                !
 ! A33   A(11,12,13)           126.7554         estimate D2E/DX2                !
 ! A34   A(11,12,16)           119.6402         estimate D2E/DX2                !
 ! A35   A(13,12,16)           113.6045         estimate D2E/DX2                !
 ! A36   A(12,13,14)           106.8741         estimate D2E/DX2                !
 ! A37   A(13,14,15)            99.1246         estimate D2E/DX2                !
 ! A38   A(14,15,16)           107.484          estimate D2E/DX2                !
 ! A39   A(8,16,12)            118.9692         estimate D2E/DX2                !
 ! A40   A(8,16,15)            128.1179         estimate D2E/DX2                !
 ! A41   A(12,16,15)           112.9129         estimate D2E/DX2                !
 ! A42   A(7,17,18)            129.07           estimate D2E/DX2                !
 ! A43   A(7,17,19)            108.3873         estimate D2E/DX2                !
 ! A44   A(18,17,19)           122.5425         estimate D2E/DX2                !
 ! A45   A(17,18,31)           109.7851         estimate D2E/DX2                !
 ! A46   A(17,18,32)           109.8632         estimate D2E/DX2                !
 ! A47   A(17,18,33)           107.1062         estimate D2E/DX2                !
 ! A48   A(31,18,32)           109.1844         estimate D2E/DX2                !
 ! A49   A(31,18,33)           110.4138         estimate D2E/DX2                !
 ! A50   A(32,18,33)           110.467          estimate D2E/DX2                !
 ! A51   A(5,19,17)            108.703          estimate D2E/DX2                !
 ! A52   A(5,19,20)            121.255          estimate D2E/DX2                !
 ! A53   A(17,19,20)           130.042          estimate D2E/DX2                !
 ! A54   A(19,20,21)           118.6215         estimate D2E/DX2                !
 ! A55   A(19,20,34)           120.587          estimate D2E/DX2                !
 ! A56   A(21,20,34)           120.7915         estimate D2E/DX2                !
 ! A57   A(3,21,20)            120.7776         estimate D2E/DX2                !
 ! A58   A(3,21,22)            114.4319         estimate D2E/DX2                !
 ! A59   A(20,21,22)           124.7905         estimate D2E/DX2                !
 ! A60   A(21,22,23)           117.7543         estimate D2E/DX2                !
 ! A61   A(22,23,35)           111.531          estimate D2E/DX2                !
 ! A62   A(22,23,36)           111.5332         estimate D2E/DX2                !
 ! A63   A(22,23,37)           104.8784         estimate D2E/DX2                !
 ! A64   A(35,23,36)           109.1962         estimate D2E/DX2                !
 ! A65   A(35,23,37)           109.8133         estimate D2E/DX2                !
 ! A66   A(36,23,37)           109.8117         estimate D2E/DX2                !
 ! D1    D(24,1,2,3)          -179.989          estimate D2E/DX2                !
 ! D2    D(25,1,2,3)            61.1651         estimate D2E/DX2                !
 ! D3    D(26,1,2,3)           -61.1442         estimate D2E/DX2                !
 ! D4    D(1,2,3,4)             -0.0141         estimate D2E/DX2                !
 ! D5    D(1,2,3,21)           179.9836         estimate D2E/DX2                !
 ! D6    D(2,3,4,5)            179.9938         estimate D2E/DX2                !
 ! D7    D(2,3,4,27)            -0.0016         estimate D2E/DX2                !
 ! D8    D(21,3,4,5)            -0.0037         estimate D2E/DX2                !
 ! D9    D(21,3,4,27)         -179.9992         estimate D2E/DX2                !
 ! D10   D(2,3,21,20)         -179.9957         estimate D2E/DX2                !
 ! D11   D(2,3,21,22)            0.0045         estimate D2E/DX2                !
 ! D12   D(4,3,21,20)            0.0021         estimate D2E/DX2                !
 ! D13   D(4,3,21,22)         -179.9976         estimate D2E/DX2                !
 ! D14   D(3,4,5,6)           -179.9645         estimate D2E/DX2                !
 ! D15   D(3,4,5,19)             0.0137         estimate D2E/DX2                !
 ! D16   D(27,4,5,6)             0.031          estimate D2E/DX2                !
 ! D17   D(27,4,5,19)         -179.9908         estimate D2E/DX2                !
 ! D18   D(4,5,6,7)           -179.9517         estimate D2E/DX2                !
 ! D19   D(4,5,6,28)             0.2007         estimate D2E/DX2                !
 ! D20   D(19,5,6,7)             0.0681         estimate D2E/DX2                !
 ! D21   D(19,5,6,28)         -179.7795         estimate D2E/DX2                !
 ! D22   D(4,5,19,17)          179.9711         estimate D2E/DX2                !
 ! D23   D(4,5,19,20)           -0.0226         estimate D2E/DX2                !
 ! D24   D(6,5,19,17)           -0.0454         estimate D2E/DX2                !
 ! D25   D(6,5,19,20)          179.9609         estimate D2E/DX2                !
 ! D26   D(5,6,7,8)           -179.8771         estimate D2E/DX2                !
 ! D27   D(5,6,7,17)            -0.0653         estimate D2E/DX2                !
 ! D28   D(28,6,7,8)            -0.0226         estimate D2E/DX2                !
 ! D29   D(28,6,7,17)          179.7892         estimate D2E/DX2                !
 ! D30   D(6,7,8,9)           -178.74           estimate D2E/DX2                !
 ! D31   D(6,7,8,16)             1.0201         estimate D2E/DX2                !
 ! D32   D(17,7,8,9)             1.4796         estimate D2E/DX2                !
 ! D33   D(17,7,8,16)         -178.7603         estimate D2E/DX2                !
 ! D34   D(6,7,17,18)         -179.8229         estimate D2E/DX2                !
 ! D35   D(6,7,17,19)            0.0372         estimate D2E/DX2                !
 ! D36   D(8,7,17,18)           -0.0074         estimate D2E/DX2                !
 ! D37   D(8,7,17,19)          179.8527         estimate D2E/DX2                !
 ! D38   D(7,8,9,10)           179.8723         estimate D2E/DX2                !
 ! D39   D(16,8,9,10)            0.1051         estimate D2E/DX2                !
 ! D40   D(7,8,16,12)         -179.8323         estimate D2E/DX2                !
 ! D41   D(7,8,16,15)            0.1697         estimate D2E/DX2                !
 ! D42   D(9,8,16,12)           -0.0663         estimate D2E/DX2                !
 ! D43   D(9,8,16,15)          179.9357         estimate D2E/DX2                !
 ! D44   D(8,9,10,11)           -0.0912         estimate D2E/DX2                !
 ! D45   D(8,9,10,29)          179.9507         estimate D2E/DX2                !
 ! D46   D(9,10,11,12)           0.0293         estimate D2E/DX2                !
 ! D47   D(9,10,11,30)        -179.9533         estimate D2E/DX2                !
 ! D48   D(29,10,11,12)        179.9852         estimate D2E/DX2                !
 ! D49   D(29,10,11,30)          0.0026         estimate D2E/DX2                !
 ! D50   D(10,11,12,13)       -179.9804         estimate D2E/DX2                !
 ! D51   D(10,11,12,16)          0.0087         estimate D2E/DX2                !
 ! D52   D(30,11,12,13)          0.0025         estimate D2E/DX2                !
 ! D53   D(30,11,12,16)        179.9916         estimate D2E/DX2                !
 ! D54   D(11,12,13,14)        179.9912         estimate D2E/DX2                !
 ! D55   D(16,12,13,14)          0.0016         estimate D2E/DX2                !
 ! D56   D(11,12,16,8)           0.01           estimate D2E/DX2                !
 ! D57   D(11,12,16,15)       -179.9917         estimate D2E/DX2                !
 ! D58   D(13,12,16,8)        -179.9996         estimate D2E/DX2                !
 ! D59   D(13,12,16,15)         -0.0013         estimate D2E/DX2                !
 ! D60   D(12,13,14,15)         -0.0012         estimate D2E/DX2                !
 ! D61   D(13,14,15,16)          0.0005         estimate D2E/DX2                !
 ! D62   D(14,15,16,8)         179.9984         estimate D2E/DX2                !
 ! D63   D(14,15,16,12)          0.0003         estimate D2E/DX2                !
 ! D64   D(7,17,18,31)        -120.8073         estimate D2E/DX2                !
 ! D65   D(7,17,18,32)         119.1084         estimate D2E/DX2                !
 ! D66   D(7,17,18,33)          -0.9034         estimate D2E/DX2                !
 ! D67   D(19,17,18,31)         59.3502         estimate D2E/DX2                !
 ! D68   D(19,17,18,32)        -60.7342         estimate D2E/DX2                !
 ! D69   D(19,17,18,33)        179.254          estimate D2E/DX2                !
 ! D70   D(7,17,19,5)            0.0055         estimate D2E/DX2                !
 ! D71   D(7,17,19,20)         179.9985         estimate D2E/DX2                !
 ! D72   D(18,17,19,5)         179.8767         estimate D2E/DX2                !
 ! D73   D(18,17,19,20)         -0.1303         estimate D2E/DX2                !
 ! D74   D(5,19,20,21)           0.0209         estimate D2E/DX2                !
 ! D75   D(5,19,20,34)        -179.9819         estimate D2E/DX2                !
 ! D76   D(17,19,20,21)       -179.9713         estimate D2E/DX2                !
 ! D77   D(17,19,20,34)          0.0259         estimate D2E/DX2                !
 ! D78   D(19,20,21,3)          -0.0106         estimate D2E/DX2                !
 ! D79   D(19,20,21,22)        179.9892         estimate D2E/DX2                !
 ! D80   D(34,20,21,3)         179.9922         estimate D2E/DX2                !
 ! D81   D(34,20,21,22)         -0.008          estimate D2E/DX2                !
 ! D82   D(3,21,22,23)        -179.985          estimate D2E/DX2                !
 ! D83   D(20,21,22,23)          0.0152         estimate D2E/DX2                !
 ! D84   D(21,22,23,35)         61.1781         estimate D2E/DX2                !
 ! D85   D(21,22,23,36)        -61.211          estimate D2E/DX2                !
 ! D86   D(21,22,23,37)        179.9839         estimate D2E/DX2                !
 --------------------------------------------------------------------------------
 Trust Radius=3.00D-01 FncErr=1.00D-07 GrdErr=1.00D-06 EigMax=2.50D+02 EigMin=1.00D-04
 Number of steps in this run=    202 maximum allowed number of steps=    222.
 GradGradGradGradGradGradGradGradGradGradGradGradGradGradGradGradGradGrad

 Leave Link  103 at Mon Mar 25 11:28:15 2024, MaxMem=   104857600 cpu:               0.1 elap:               0.1
 (Enter /software/spackages_prod/apps/linux-ubuntu20.04-zen2/gcc-10.3.0/gaussian_sse4_kcl-16-C-6zka5bo66eu7gufawqnzn2az3c6hgggd/g16/l202.exe)
                          Input orientation:                          
 ---------------------------------------------------------------------
 Center     Atomic      Atomic             Coordinates (Angstroms)
 Number     Number       Type             X           Y           Z
 ---------------------------------------------------------------------
      1          6           0        4.605650    2.126000    1.598540
      2          8           0        4.434900    0.857890    0.902820
      3          6           0        3.139260    0.475700    0.593080
      4          6           0        2.001130    1.193400    0.887840
      5          6           0        0.737080    0.684880    0.512510
      6          6           0       -0.590800    1.156150    0.658660
      7          6           0       -1.453950    0.216060    0.084990
      8          6           0       -2.893620    0.294520    0.008610
      9          7           0       -3.601200   -0.691370   -0.548060
     10          6           0       -4.971760   -0.643630   -0.631510
     11          6           0       -5.747440    0.384540   -0.167910
     12          6           0       -5.065760    1.468630    0.438130
     13          7           0       -5.622690    2.582060    0.962720
     14         16           0       -4.382590    3.515110    1.535460
     15          7           0       -3.108920    2.534270    1.134460
     16          6           0       -3.613570    1.440960    0.537330
     17          7           0       -0.663260   -0.845540   -0.422760
     18          6           0       -1.091420   -2.071810   -1.119730
     19          6           0        0.660430   -0.563280   -0.165090
     20          6           0        1.815730   -1.298990   -0.468370
     21          6           0        3.045300   -0.786530   -0.093730
     22          8           0        4.258240   -1.400950   -0.326840
     23          6           0        4.247400   -2.684380   -1.018760
     24          1           0        5.682000    2.227000    1.739190
     25          1           0        4.102590    2.123490    2.573980
     26          1           0        4.228530    2.967900    1.003930
     27          1           0        2.062660    2.141720    1.403100
     28          1           0       -0.916910    2.069560    1.119910
     29          1           0       -5.429220   -1.503920   -1.105640
     30          1           0       -6.824090    0.385020   -0.251520
     31          1           0       -0.759230   -2.952700   -0.558560
     32          1           0       -0.656020   -2.100020   -2.125200
     33          1           0       -2.177300   -2.045200   -1.176110
     34          1           0        1.745020   -2.245420   -0.983510
     35          1           0        3.816930   -2.596230   -2.024010
     36          1           0        3.690900   -3.442060   -0.453210
     37          1           0        5.296020   -2.972810   -1.089920
 ---------------------------------------------------------------------
                    Distance matrix (angstroms):
                    1          2          3          4          5
     1  C    0.000000
     2  O    1.456463   0.000000
     3  C    2.425848   1.385890   0.000000
     4  C    2.856285   2.456833   1.377431   0.000000
     5  C    4.268738   3.722385   2.412616   1.413254   0.000000
     6  C    5.369085   5.040460   3.792184   2.602309   1.416588
     7  C    6.531268   5.979912   4.628515   3.679312   2.281048
     8  C    7.881703   7.404337   6.063833   5.053673   3.686228
     9  N    8.938560   8.311688   6.935276   6.082785   4.673280
    10  C   10.216201   9.648522   8.278959   7.369145   5.971982
    11  C   10.646103  10.249418   8.919689   7.861883   6.527034
    12  C    9.762933   9.531604   8.266334   7.086531   5.856001
    13  N   10.258226  10.204483   9.019155   7.749620   6.651966
    14  S    9.095167   9.230882   8.167271   6.823608   5.938657
    15  N    7.739292   7.731308   6.600800   5.288796   4.312630
    16  C    8.315709   8.077835   6.821697   5.631074   4.415929
    17  N    6.377861   5.536251   4.151718   3.601933   2.275493
    18  C    7.580713   6.573740   5.227062   4.925018   3.688761
    19  C    5.089929   4.172143   2.792651   2.447869   1.422294
    20  C    4.877123   3.659555   2.455185   2.843534   2.461981
    21  C    3.712317   2.372386   1.440056   2.444155   2.803650
    22  O    4.033257   2.577912   2.370693   3.647005   4.177770
    23  C    5.488020   4.034266   3.716464   4.870116   5.100887
    24  H    1.090189   2.032052   3.293349   3.916878   5.323074
    25  H    1.097524   2.122487   2.750851   2.850310   4.200704
    26  H    1.097532   2.122488   2.750703   2.850200   4.200464
    27  H    2.550538   2.743360   2.142620   1.081013   2.161642
    28  H    5.543550   5.491552   4.389813   3.055564   2.240972
    29  H   11.008521  10.339870   8.956751   8.152276   6.740364
    30  H   11.708659  11.327884   9.999496   8.935106   7.605587
    31  H    7.695987   6.605696   5.317746   5.186695   4.076533
    32  H    7.707831   6.620846   5.331747   5.194754   4.080920
    33  H    8.432438   7.514724   6.144166   5.675183   4.335710
    34  H    5.827478   4.519317   3.440063   3.923395   3.441028
    35  H    6.003699   4.569373   4.092084   5.112465   5.165762
    36  H    6.004143   4.569674   4.092417   5.112849   5.166169
    37  H    5.805367   4.403045   4.401855   5.667904   6.060562
                    6          7          8          9         10
     6  C    0.000000
     7  C    1.399248   0.000000
     8  C    2.543217   1.443828   0.000000
     9  N    3.732561   2.415546   1.335114   0.000000
    10  C    4.908824   3.691534   2.368237   1.373928   0.000000
    11  C    5.279161   4.304231   2.860691   2.430729   1.368845
    12  C    4.491274   3.839116   2.506235   2.789822   2.369516
    13  N    5.238854   4.873065   3.686596   4.133306   3.656550
    14  S    4.550950   4.643762   3.862707   4.758792   4.726309
    15  N    2.909730   3.035525   2.516023   3.671235   4.085079
    16  C    3.038581   2.523678   1.453340   2.392709   2.748888
    17  N    2.276287   1.417743   2.541716   2.944649   4.318277
    18  C    3.719276   2.610963   3.181288   2.920859   4.163544
    19  C    2.280478   2.267270   3.660227   4.280720   5.652041
    20  C    3.617913   3.645873   4.994473   5.451484   6.821007
    21  C    4.190623   4.613066   6.037376   6.662690   8.036347
    22  O    5.569844   5.950919   7.357734   7.894507   9.266027
    23  C    6.400905   6.491241   7.805351   8.111361   9.450266
    24  H    6.454633   7.596186   8.959389   9.996309  11.285537
    25  H    5.160630   6.380321   7.672888   8.776044  10.013788
    26  H    5.160193   6.380255   7.672199   8.780866  10.018141
    27  H    2.926839   4.220441   5.470051   6.626668   7.834595
    28  H    1.073973   2.189734   2.879781   4.196459   5.183694
    29  H    5.796467   4.492071   3.302303   2.076726   1.083590
    30  H    6.346414   5.383325   3.940108   3.410802   2.152589
    31  H    4.288664   3.307239   3.927052   3.631875   4.804429
    32  H    4.284481   3.299372   3.910731   3.625707   4.793516
    33  H    4.016467   2.688290   2.718633   2.062715   3.173325
    34  H    4.441110   4.175402   5.380760   5.584510   6.914099
    35  H    6.380059   6.335537   7.584159   7.799716   9.110037
    36  H    6.380654   6.335691   7.584933   7.794230   9.105201
    37  H    7.400033   7.557209   8.885517   9.201038  10.538621
                   11         12         13         14         15
    11  C    0.000000
    12  C    1.416765   0.000000
    13  N    2.474466   1.350960   0.000000
    14  S    3.816380   2.420524   1.654225   0.000000
    15  N    3.644077   2.334456   2.520083   1.656829   0.000000
    16  C    2.483302   1.455837   2.349389   2.426881   1.344084
    17  N    5.237073   5.047625   6.185786   6.056675   4.453011
    18  C    5.349592   5.545901   6.821108   7.006819   5.510685
    19  C    6.477590   6.105881   7.116370   6.705012   5.048925
    20  C    7.754101   7.472374   8.511208   8.100004   6.443223
    21  C    8.870692   8.435515   9.359356   8.736814   7.100041
    22  O   10.164982   9.785532  10.731268  10.114334   8.479175
    23  C   10.489950  10.300727  11.361352  10.928607   9.272869
    24  H   11.733021  10.852752  11.336886  10.148729   8.817051
    25  H   10.371355   9.436596   9.868511   8.661028   7.365245
    26  H   10.371448   9.431424   9.858859   8.644845   7.351411
    27  H    8.158028   7.224859   7.710541   6.591280   5.193410
    28  H    5.275585   4.247222   4.736215   3.777993   2.240776
    29  H    2.132342   3.369181   4.583751   5.767279   5.168058
    30  H    1.079892   2.177511   2.782935   4.353353   4.510289
    31  H    6.014318   6.252020   7.523371   7.703650   6.204369
    32  H    5.993879   6.225089   7.491658   7.669253   6.174038
    33  H    4.434637   4.826590   6.152791   6.567569   5.213271
    34  H    7.982409   7.886821   9.020838   8.779323   7.133861
    35  H   10.188585  10.074096  11.173257  10.828224   9.179617
    36  H   10.188549  10.079110  11.182032  10.841507   9.191016
    37  H   11.579288  11.376634  12.421278  11.944087  10.291687
                   16         17         18         19         20
    16  C    0.000000
    17  N    3.854113   0.000000
    18  C    4.631052   1.474051   0.000000
    19  C    4.772572   1.377759   2.501195   0.000000
    20  C    6.164094   2.520533   3.077831   1.402842   0.000000
    21  C    7.049858   3.723595   4.451637   2.396359   1.383768
    22  O    8.413598   4.953670   5.449550   3.697579   2.448731
    23  C    9.013029   5.277417   5.374796   4.253724   2.852237
    24  H    9.405846   7.374066   8.516596   6.052116   5.679258
    25  H    8.009552   6.364661   7.630319   5.154581   5.118495
    26  H    8.002987   6.364541   7.629579   5.154336   5.118166
    27  H    5.784480   4.437130   5.836671   3.426732   3.924520
    28  H    2.829578   3.307866   4.711410   3.327322   4.619208
    29  H    3.829916   4.859441   4.374838   6.233240   7.275810
    30  H    3.470552   6.284857   6.297087   7.544851   8.805078
    31  H    5.352801   2.113711   1.096006   2.807059   3.061586
    32  H    5.326791   2.114728   1.096056   2.817205   3.081604
    33  H    4.141505   2.073412   1.087668   3.357225   4.123350
    34  H    6.679584   2.841464   2.845011   2.162346   1.079861
    35  H    8.835819   5.069617   5.018430   4.189506   2.847393
    36  H    8.841964   5.069670   5.019205   4.189766   2.847673
    37  H   10.075222   6.362657   6.450743   5.305642   3.911575
                   21         22         23         24         25
    21  C    0.000000
    22  O    1.379520   0.000000
    23  C    2.429518   1.458103   0.000000
    24  H    4.403765   4.411076   5.812574   0.000000
    25  H    4.086900   4.567347   6.003696   1.789448   0.000000
    26  H    4.086641   4.567131   6.003324   1.789445   1.787161
    27  H    3.432307   4.512624   5.824924   3.635911   2.352149
    28  H    5.032820   6.396851   7.337844   6.629774   5.226147
    29  H    8.564818   9.719260   9.748744  12.061179  10.842191
    30  H    9.939934  11.225569  11.514676  12.796801  11.419197
    31  H    4.402591   5.257055   5.034891   8.578950   7.695311
    32  H    4.421753   5.279465   5.060555   8.592270   7.909785
    33  H    5.480086   6.523227   6.458334   9.408468   8.418917
    34  H    2.147277   2.731414   2.540833   6.550988   6.107475
    35  H    2.756158   2.122224   1.097088   6.395601   6.595367
    36  H    2.756422   2.122257   1.097095   6.396041   6.348914
    37  H    3.292105   2.032246   1.089890   5.932189   6.389109
                   26         27         28         29         30
    26  H    0.000000
    27  H    2.352212   0.000000
    28  H    5.224559   2.993867   0.000000
    29  H   10.849866   8.701306   6.171205   0.000000
    30  H   11.419625   9.208588   6.293907   2.498655   0.000000
    31  H    7.897634   6.145266   5.297662   4.920068   6.929443
    32  H    7.702863   6.150811   5.290009   4.917141   6.908776
    33  H    8.421307   6.493064   4.877657   3.297413   5.324800
    34  H    6.107082   5.004378   5.489016   7.213491   8.993591
    35  H    6.348022   6.104975   7.352759   9.355631  11.192001
    36  H    6.595445   6.105379   7.354222   9.346584  11.191614
    37  H    6.388723   6.544324   8.301165  10.825371  12.604563
                   31         32         33         34         35
    31  H    0.000000
    32  H    1.786638   0.000000
    33  H    1.793278   1.793898   0.000000
    34  H    2.636683   2.662628   3.932147   0.000000
    35  H    4.818283   4.501527   6.078928   2.344892   0.000000
    36  H    4.478195   4.846889   6.075325   2.345126   1.788498
    37  H    6.078552   6.104125   7.531162   3.626296   1.789426
                   36         37
    36  H    0.000000
    37  H    1.789415   0.000000
 Symmetry turned off by external request.
 Stoichiometry    C16H14N4O2S
 Framework group  C1[X(C16H14N4O2S)]
 Deg. of freedom   105
 Full point group                 C1      NOp   1
 Rotational constants (GHZ):           0.5221378           0.1159112           0.0950304
 Leave Link  202 at Mon Mar 25 11:28:15 2024, MaxMem=   104857600 cpu:               0.1 elap:               0.1
 (Enter /software/spackages_prod/apps/linux-ubuntu20.04-zen2/gcc-10.3.0/gaussian_sse4_kcl-16-C-6zka5bo66eu7gufawqnzn2az3c6hgggd/g16/l301.exe)
 Standard basis: 6-31G(d) (6D, 7F)
 Ernie: Thresh=  0.10000D-02 Tol=  0.10000D-05 Strict=F.
   377 basis functions,   724 primitive gaussians,   377 cartesian basis functions
    85 alpha electrons       85 beta electrons
       nuclear repulsion energy      1933.4474587905 Hartrees.
 IExCor=  402 DFT=T Ex+Corr=B3LYP ExCW=0 ScaHFX=  0.200000
 ScaDFX=  0.800000  0.720000  1.000000  0.810000 ScalE2=  1.000000  1.000000
 IRadAn=      5 IRanWt=     -1 IRanGd=            0 ICorTp=0 IEmpDi=  4
 NAtoms=   37 NActive=   37 NUniq=   37 SFac= 1.00D+00 NAtFMM=   60 NAOKFM=F Big=F
 Integral buffers will be    131072 words long.
 Raffenetti 2 integral format.
 Two-electron integral symmetry is turned off.
 Leave Link  301 at Mon Mar 25 11:28:15 2024, MaxMem=   104857600 cpu:               0.2 elap:               0.2
 (Enter /software/spackages_prod/apps/linux-ubuntu20.04-zen2/gcc-10.3.0/gaussian_sse4_kcl-16-C-6zka5bo66eu7gufawqnzn2az3c6hgggd/g16/l302.exe)
 NPDir=0 NMtPBC=     1 NCelOv=     1 NCel=       1 NClECP=     1 NCelD=      1
         NCelK=      1 NCelE2=     1 NClLst=     1 CellRange=     0.0.
 One-electron integrals computed using PRISM.
 NBasis=   377 RedAO= T EigKep=  3.02D-04  NBF=   377
 NBsUse=   377 1.00D-06 EigRej= -1.00D+00 NBFU=   377
 Precomputing XC quadrature grid using
 IXCGrd= 4 IRadAn=           5 IRanWt=          -1 IRanGd=           0 AccXCQ= 0.00D+00.
 Generated NRdTot=       0 NPtTot=           0 NUsed=           0 NTot=          32
 NSgBfM=   372   372   372   372   372 MxSgAt=    37 MxSgA2=    37.
 Leave Link  302 at Mon Mar 25 11:28:19 2024, MaxMem=   104857600 cpu:               3.9 elap:               3.9
 (Enter /software/spackages_prod/apps/linux-ubuntu20.04-zen2/gcc-10.3.0/gaussian_sse4_kcl-16-C-6zka5bo66eu7gufawqnzn2az3c6hgggd/g16/l303.exe)
 DipDrv:  MaxL=1.
 Leave Link  303 at Mon Mar 25 11:28:20 2024, MaxMem=   104857600 cpu:               0.4 elap:               0.4
 (Enter /software/spackages_prod/apps/linux-ubuntu20.04-zen2/gcc-10.3.0/gaussian_sse4_kcl-16-C-6zka5bo66eu7gufawqnzn2az3c6hgggd/g16/l401.exe)
 ExpMin= 1.17D-01 ExpMax= 2.19D+04 ExpMxC= 3.30D+03 IAcc=3 IRadAn=         5 AccDes= 0.00D+00
 Harris functional with IExCor=  402 and IRadAn=       5 diagonalized for initial guess.
 HarFok:  IExCor=  402 AccDes= 0.00D+00 IRadAn=         5 IDoV= 1 UseB2=F ITyADJ=14
 ICtDFT=  3500011 ScaDFX=  1.000000  1.000000  1.000000  1.000000
 FoFCou: FMM=F IPFlag=           0 FMFlag=      100000 FMFlg1=           0
         NFxFlg=           0 DoJE=T BraDBF=F KetDBF=T FulRan=T
         wScrn=  0.000000 ICntrl=       500 IOpCl=  0 I1Cent=   200000004 NGrid=           0
         NMat0=    1 NMatS0=      1 NMatT0=    0 NMatD0=    1 NMtDS0=    0 NMtDT0=    0
 Symmetry not used in FoFCou.
 Harris En= -1385.64096815873    
 JPrj=0 DoOrth=F DoCkMO=F.
 Leave Link  401 at Mon Mar 25 11:28:38 2024, MaxMem=   104857600 cpu:              18.1 elap:              18.2
 (Enter /software/spackages_prod/apps/linux-ubuntu20.04-zen2/gcc-10.3.0/gaussian_sse4_kcl-16-C-6zka5bo66eu7gufawqnzn2az3c6hgggd/g16/l502.exe)
 Two-electron integral symmetry not used.
 Closed shell SCF:
 Using DIIS extrapolation, IDIIS=  1040.
 NGot=   104857600 LenX=   104567031 LenY=   104424461
 Requested convergence on RMS density matrix=1.00D-08 within 128 cycles.
 Requested convergence on MAX density matrix=1.00D-06.
 Requested convergence on             energy=1.00D-06.
 No special actions if energy rises.
 Fock matrices will be formed incrementally for  20 cycles.
 Integral accuracy reduced to 1.0D-05 until final iterations.

 Cycle   1  Pass 0  IDiag  1:
 FoFJK:  IHMeth= 1 ICntrl=       0 DoSepK=F KAlg= 0 I1Cent=           0 FoldK=F
 IRaf= 710000000 NMat=       1 IRICut=       1 DoRegI=T DoRafI=F ISym2E= 0 IDoP0=0 IntGTp=1.
 FoFCou: FMM=F IPFlag=           0 FMFlag=      100000 FMFlg1=           0
         NFxFlg=           0 DoJE=F BraDBF=F KetDBF=F FulRan=T
         wScrn=  0.000000 ICntrl=         0 IOpCl=  0 I1Cent=           0 NGrid=           0
         NMat0=    1 NMatS0=      1 NMatT0=    0 NMatD0=    1 NMtDS0=    0 NMtDT0=    0
 Symmetry not used in FoFCou.
 E= -1385.17540958107    
 DIIS: error= 2.87D-02 at cycle   1 NSaved=   1.
 NSaved= 1 IEnMin= 1 EnMin= -1385.17540958107     IErMin= 1 ErrMin= 2.87D-02
 ErrMax= 2.87D-02  0.00D+00 EMaxC= 1.00D-01 BMatC= 5.16D-01 BMatP= 5.16D-01
 IDIUse=3 WtCom= 7.13D-01 WtEn= 2.87D-01
 Coeff-Com:  0.100D+01
 Coeff-En:   0.100D+01
 Coeff:      0.100D+01
 Gap=     0.064 Goal=   None    Shift=    0.000
 GapD=    0.064 DampG=0.500 DampE=0.500 DampFc=0.2500 IDamp=-1.
 Damping current iteration by 2.50D-01
 RMSDP=8.77D-03 MaxDP=8.23D-01              OVMax= 7.46D-01

 Cycle   2  Pass 0  IDiag  1:
 RMSU=  2.18D-03    CP:  9.89D-01
 E= -1385.29512251256     Delta-E=       -0.119712931493 Rises=F Damp=T
 DIIS: error= 1.41D-02 at cycle   2 NSaved=   2.
 NSaved= 2 IEnMin= 2 EnMin= -1385.29512251256     IErMin= 2 ErrMin= 1.41D-02
 ErrMax= 1.41D-02  0.00D+00 EMaxC= 1.00D-01 BMatC= 1.14D-01 BMatP= 5.16D-01
 IDIUse=3 WtCom= 8.59D-01 WtEn= 1.41D-01
 Coeff-Com: -0.416D+00 0.142D+01
 Coeff-En:   0.223D+00 0.777D+00
 Coeff:     -0.326D+00 0.133D+01
 Gap=     0.071 Goal=   None    Shift=    0.000
 RMSDP=3.05D-03 MaxDP=2.02D-01 DE=-1.20D-01 OVMax= 8.24D-01

 Cycle   3  Pass 0  IDiag  1:
 RMSU=  2.72D-03    CP:  9.65D-01  4.03D-01
 E= -1385.44982696322     Delta-E=       -0.154704450654 Rises=F Damp=F
 DIIS: error= 2.63D-02 at cycle   3 NSaved=   3.
 NSaved= 3 IEnMin= 3 EnMin= -1385.44982696322     IErMin= 2 ErrMin= 1.41D-02
 ErrMax= 2.63D-02  0.00D+00 EMaxC= 1.00D-01 BMatC= 2.10D-01 BMatP= 1.14D-01
 IDIUse=2 WtCom= 0.00D+00 WtEn= 1.00D+00
 Coeff-En:   0.000D+00 0.267D+00 0.733D+00
 Coeff:      0.000D+00 0.267D+00 0.733D+00
 Gap=     0.369 Goal=   None    Shift=    0.000
 RMSDP=5.74D-03 MaxDP=3.74D-01 DE=-1.55D-01 OVMax= 6.75D-01

 Cycle   4  Pass 0  IDiag  1:
 RMSU=  4.10D-03    CP:  9.62D-01  1.77D+00  7.58D-03
 E= -1383.97185466305     Delta-E=        1.477972300170 Rises=F Damp=F
 DIIS: error= 7.52D-02 at cycle   4 NSaved=   4.
 NSaved= 4 IEnMin= 3 EnMin= -1385.44982696322     IErMin= 2 ErrMin= 1.41D-02
 ErrMax= 7.52D-02  0.00D+00 EMaxC= 1.00D-01 BMatC= 1.38D+00 BMatP= 1.14D-01
 IDIUse=2 WtCom= 0.00D+00 WtEn= 1.00D+00
 Coeff-En:   0.000D+00 0.000D+00 0.800D+00 0.200D+00
 Coeff:      0.000D+00 0.000D+00 0.800D+00 0.200D+00
 Gap=     0.053 Goal=   None    Shift=    0.000
 RMSDP=4.24D-03 MaxDP=2.15D-01 DE= 1.48D+00 OVMax= 7.68D-01

 Cycle   5  Pass 0  IDiag  1:
 RMSU=  1.77D-03    CP:  9.69D-01  7.05D-01  4.10D-01  3.00D-01
 E= -1385.60816561451     Delta-E=       -1.636310951468 Rises=F Damp=F
 DIIS: error= 1.57D-02 at cycle   5 NSaved=   5.
 NSaved= 5 IEnMin= 5 EnMin= -1385.60816561451     IErMin= 2 ErrMin= 1.41D-02
 ErrMax= 1.57D-02  0.00D+00 EMaxC= 1.00D-01 BMatC= 1.06D-01 BMatP= 1.14D-01
 IDIUse=3 WtCom= 8.43D-01 WtEn= 1.57D-01
 Coeff-Com: -0.160D+00 0.406D+00 0.387D+00 0.184D-01 0.348D+00
 Coeff-En:   0.000D+00 0.000D+00 0.332D+00 0.000D+00 0.668D+00
 Coeff:     -0.134D+00 0.342D+00 0.378D+00 0.155D-01 0.398D+00
 Gap=     0.081 Goal=   None    Shift=    0.000
 RMSDP=1.42D-03 MaxDP=1.20D-01 DE=-1.64D+00 OVMax= 1.75D-01

 Cycle   6  Pass 0  IDiag  1:
 RMSU=  7.08D-04    CP:  9.68D-01  5.42D-01  6.36D-01  1.45D-01  5.63D-01
 E= -1385.71099045072     Delta-E=       -0.102824836202 Rises=F Damp=F
 DIIS: error= 6.08D-03 at cycle   6 NSaved=   6.
 NSaved= 6 IEnMin= 6 EnMin= -1385.71099045072     IErMin= 6 ErrMin= 6.08D-03
 ErrMax= 6.08D-03  0.00D+00 EMaxC= 1.00D-01 BMatC= 1.46D-02 BMatP= 1.06D-01
 IDIUse=3 WtCom= 9.39D-01 WtEn= 6.08D-02
 Coeff-Com: -0.927D-01 0.158D+00 0.128D+00-0.146D-01 0.290D+00 0.532D+00
 Coeff-En:   0.000D+00 0.000D+00 0.000D+00 0.000D+00 0.135D+00 0.865D+00
 Coeff:     -0.871D-01 0.148D+00 0.120D+00-0.137D-01 0.281D+00 0.552D+00
 Gap=     0.088 Goal=   None    Shift=    0.000
 RMSDP=4.59D-04 MaxDP=3.30D-02 DE=-1.03D-01 OVMax= 5.19D-02

 Cycle   7  Pass 0  IDiag  1:
 RMSU=  2.36D-04    CP:  9.68D-01  5.85D-01  6.02D-01  1.63D-01  6.95D-01
                    CP:  6.08D-01
 E= -1385.72619474043     Delta-E=       -0.015204289718 Rises=F Damp=F
 DIIS: error= 1.58D-03 at cycle   7 NSaved=   7.
 NSaved= 7 IEnMin= 7 EnMin= -1385.72619474043     IErMin= 7 ErrMin= 1.58D-03
 ErrMax= 1.58D-03  0.00D+00 EMaxC= 1.00D-01 BMatC= 1.22D-03 BMatP= 1.46D-02
 IDIUse=3 WtCom= 9.84D-01 WtEn= 1.58D-02
 Coeff-Com: -0.327D-01 0.468D-01 0.942D-02-0.446D-02 0.971D-01 0.304D+00
 Coeff-Com:  0.580D+00
 Coeff-En:   0.000D+00 0.000D+00 0.000D+00 0.000D+00 0.000D+00 0.000D+00
 Coeff-En:   0.100D+01
 Coeff:     -0.322D-01 0.461D-01 0.927D-02-0.439D-02 0.956D-01 0.299D+00
 Coeff:      0.586D+00
 Gap=     0.090 Goal=   None    Shift=    0.000
 RMSDP=1.39D-04 MaxDP=8.10D-03 DE=-1.52D-02 OVMax= 1.33D-02

 Cycle   8  Pass 0  IDiag  1:
 RMSU=  1.03D-04    CP:  9.68D-01  5.87D-01  5.98D-01  1.64D-01  6.98D-01
                    CP:  6.76D-01  6.69D-01
 E= -1385.72696178622     Delta-E=       -0.000767045784 Rises=F Damp=F
 DIIS: error= 8.02D-04 at cycle   8 NSaved=   8.
 NSaved= 8 IEnMin= 8 EnMin= -1385.72696178622     IErMin= 8 ErrMin= 8.02D-04
 ErrMax= 8.02D-04  0.00D+00 EMaxC= 1.00D-01 BMatC= 4.44D-04 BMatP= 1.22D-03
 IDIUse=3 WtCom= 9.92D-01 WtEn= 8.02D-03
 Coeff-Com: -0.111D-01 0.126D-01-0.121D-01-0.490D-03 0.325D-01 0.148D+00
 Coeff-Com:  0.438D+00 0.393D+00
 Coeff-En:   0.000D+00 0.000D+00 0.000D+00 0.000D+00 0.000D+00 0.000D+00
 Coeff-En:   0.272D+00 0.728D+00
 Coeff:     -0.110D-01 0.125D-01-0.120D-01-0.486D-03 0.322D-01 0.147D+00
 Coeff:      0.436D+00 0.395D+00
 Gap=     0.089 Goal=   None    Shift=    0.000
 RMSDP=7.35D-05 MaxDP=3.71D-03 DE=-7.67D-04 OVMax= 9.70D-03

 Cycle   9  Pass 0  IDiag  1:
 RMSU=  3.37D-05    CP:  9.68D-01  5.88D-01  5.96D-01  1.67D-01  7.01D-01
                    CP:  6.87D-01  7.68D-01  4.25D-01
 E= -1385.72738685998     Delta-E=       -0.000425073762 Rises=F Damp=F
 DIIS: error= 3.17D-04 at cycle   9 NSaved=   9.
 NSaved= 9 IEnMin= 9 EnMin= -1385.72738685998     IErMin= 9 ErrMin= 3.17D-04
 ErrMax= 3.17D-04  0.00D+00 EMaxC= 1.00D-01 BMatC= 4.57D-05 BMatP= 4.44D-04
 IDIUse=3 WtCom= 9.97D-01 WtEn= 3.17D-03
 Coeff-Com: -0.503D-02 0.526D-02-0.105D-01 0.108D-03 0.112D-01 0.680D-01
 Coeff-Com:  0.240D+00 0.282D+00 0.409D+00
 Coeff-En:   0.000D+00 0.000D+00 0.000D+00 0.000D+00 0.000D+00 0.000D+00
 Coeff-En:   0.000D+00 0.548D-01 0.945D+00
 Coeff:     -0.501D-02 0.524D-02-0.105D-01 0.108D-03 0.112D-01 0.678D-01
 Coeff:      0.239D+00 0.281D+00 0.411D+00
 Gap=     0.089 Goal=   None    Shift=    0.000
 RMSDP=2.08D-05 MaxDP=1.33D-03 DE=-4.25D-04 OVMax= 2.09D-03

 Cycle  10  Pass 0  IDiag  1:
 RMSU=  1.29D-05    CP:  9.68D-01  5.88D-01  5.95D-01  1.67D-01  7.02D-01
                    CP:  6.88D-01  7.71D-01  5.07D-01  5.93D-01
 E= -1385.72742772246     Delta-E=       -0.000040862480 Rises=F Damp=F
 DIIS: error= 9.55D-05 at cycle  10 NSaved=  10.
 NSaved=10 IEnMin=10 EnMin= -1385.72742772246     IErMin=10 ErrMin= 9.55D-05
 ErrMax= 9.55D-05  0.00D+00 EMaxC= 1.00D-01 BMatC= 4.16D-06 BMatP= 4.57D-05
 IDIUse=1 WtCom= 1.00D+00 WtEn= 0.00D+00
 Coeff-Com: -0.213D-02 0.267D-02-0.349D-02 0.110D-03 0.229D-02 0.131D-01
 Coeff-Com:  0.504D-01 0.850D-01 0.229D+00 0.623D+00
 Coeff:     -0.213D-02 0.267D-02-0.349D-02 0.110D-03 0.229D-02 0.131D-01
 Coeff:      0.504D-01 0.850D-01 0.229D+00 0.623D+00
 Gap=     0.089 Goal=   None    Shift=    0.000
 RMSDP=7.81D-06 MaxDP=4.26D-04 DE=-4.09D-05 OVMax= 9.59D-04

 Initial convergence to 1.0D-05 achieved.  Increase integral accuracy.
 Cycle  11  Pass 1  IDiag  1:
 E= -1385.72739550240     Delta-E=        0.000032220059 Rises=F Damp=F
 DIIS: error= 1.20D-04 at cycle   1 NSaved=   1.
 NSaved= 1 IEnMin= 1 EnMin= -1385.72739550240     IErMin= 1 ErrMin= 1.20D-04
 ErrMax= 1.20D-04  0.00D+00 EMaxC= 1.00D-01 BMatC= 1.80D-06 BMatP= 1.80D-06
 IDIUse=3 WtCom= 9.99D-01 WtEn= 1.20D-03
 Coeff-Com:  0.100D+01
 Coeff-En:   0.100D+01
 Coeff:      0.100D+01
 Gap=     0.089 Goal=   None    Shift=    0.000
 RMSDP=7.81D-06 MaxDP=4.26D-04 DE= 3.22D-05 OVMax= 1.26D-03

 Cycle  12  Pass 1  IDiag  1:
 RMSU=  5.65D-05    CP:  1.00D+00
 E= -1385.72739363116     Delta-E=        0.000001871235 Rises=F Damp=F
 DIIS: error= 6.94D-05 at cycle   2 NSaved=   2.
 NSaved= 2 IEnMin= 1 EnMin= -1385.72739550240     IErMin= 2 ErrMin= 6.94D-05
 ErrMax= 6.94D-05  0.00D+00 EMaxC= 1.00D-01 BMatC= 3.51D-06 BMatP= 1.80D-06
 IDIUse=1 WtCom= 1.00D+00 WtEn= 0.00D+00
 Coeff-Com:  0.599D+00 0.401D+00
 Coeff:      0.599D+00 0.401D+00
 Gap=     0.089 Goal=   None    Shift=    0.000
 RMSDP=7.06D-06 MaxDP=3.09D-04 DE= 1.87D-06 OVMax= 8.16D-04

 Cycle  13  Pass 1  IDiag  1:
 RMSU=  6.98D-06    CP:  1.00D+00  9.82D-01
 E= -1385.72739697906     Delta-E=       -0.000003347895 Rises=F Damp=F
 DIIS: error= 2.91D-05 at cycle   3 NSaved=   3.
 NSaved= 3 IEnMin= 3 EnMin= -1385.72739697906     IErMin= 3 ErrMin= 2.91D-05
 ErrMax= 2.91D-05  0.00D+00 EMaxC= 1.00D-01 BMatC= 3.27D-07 BMatP= 1.80D-06
 IDIUse=1 WtCom= 1.00D+00 WtEn= 0.00D+00
 Coeff-Com:  0.109D+00 0.232D+00 0.659D+00
 Coeff:      0.109D+00 0.232D+00 0.659D+00
 Gap=     0.089 Goal=   None    Shift=    0.000
 RMSDP=2.40D-06 MaxDP=1.51D-04 DE=-3.35D-06 OVMax= 2.43D-04

 Cycle  14  Pass 1  IDiag  1:
 RMSU=  2.10D-06    CP:  1.00D+00  9.90D-01  8.48D-01
 E= -1385.72739709287     Delta-E=       -0.000000113809 Rises=F Damp=F
 DIIS: error= 1.91D-05 at cycle   4 NSaved=   4.
 NSaved= 4 IEnMin= 4 EnMin= -1385.72739709287     IErMin= 4 ErrMin= 1.91D-05
 ErrMax= 1.91D-05  0.00D+00 EMaxC= 1.00D-01 BMatC= 1.90D-07 BMatP= 3.27D-07
 IDIUse=1 WtCom= 1.00D+00 WtEn= 0.00D+00
 Coeff-Com:  0.659D-02 0.123D+00 0.503D+00 0.367D+00
 Coeff:      0.659D-02 0.123D+00 0.503D+00 0.367D+00
 Gap=     0.089 Goal=   None    Shift=    0.000
 RMSDP=1.45D-06 MaxDP=8.32D-05 DE=-1.14D-07 OVMax= 1.92D-04

 Cycle  15  Pass 1  IDiag  1:
 RMSU=  4.77D-07    CP:  1.00D+00  9.93D-01  8.34D-01  3.53D-01
 E= -1385.72739727909     Delta-E=       -0.000000186219 Rises=F Damp=F
 DIIS: error= 4.11D-06 at cycle   5 NSaved=   5.
 NSaved= 5 IEnMin= 5 EnMin= -1385.72739727909     IErMin= 5 ErrMin= 4.11D-06
 ErrMax= 4.11D-06  0.00D+00 EMaxC= 1.00D-01 BMatC= 1.17D-08 BMatP= 1.90D-07
 IDIUse=1 WtCom= 1.00D+00 WtEn= 0.00D+00
 Coeff-Com: -0.202D-02 0.752D-01 0.322D+00 0.262D+00 0.343D+00
 Coeff:     -0.202D-02 0.752D-01 0.322D+00 0.262D+00 0.343D+00
 Gap=     0.089 Goal=   None    Shift=    0.000
 RMSDP=3.37D-07 MaxDP=1.72D-05 DE=-1.86D-07 OVMax= 3.92D-05

 Cycle  16  Pass 1  IDiag  1:
 RMSU=  1.43D-07    CP:  1.00D+00  9.93D-01  8.35D-01  3.94D-01  3.88D-01
 E= -1385.72739729078     Delta-E=       -0.000000011692 Rises=F Damp=F
 DIIS: error= 5.39D-07 at cycle   6 NSaved=   6.
 NSaved= 6 IEnMin= 6 EnMin= -1385.72739729078     IErMin= 6 ErrMin= 5.39D-07
 ErrMax= 5.39D-07  0.00D+00 EMaxC= 1.00D-01 BMatC= 2.57D-10 BMatP= 1.17D-08
 IDIUse=1 WtCom= 1.00D+00 WtEn= 0.00D+00
 Coeff-Com: -0.155D-02 0.361D-01 0.156D+00 0.130D+00 0.195D+00 0.485D+00
 Coeff:     -0.155D-02 0.361D-01 0.156D+00 0.130D+00 0.195D+00 0.485D+00
 Gap=     0.089 Goal=   None    Shift=    0.000
 RMSDP=6.04D-08 MaxDP=2.24D-06 DE=-1.17D-08 OVMax= 6.08D-06

 Cycle  17  Pass 1  IDiag  1:
 RMSU=  4.68D-08    CP:  1.00D+00  9.93D-01  8.35D-01  3.96D-01  4.36D-01
                    CP:  7.94D-01
 E= -1385.72739729108     Delta-E=       -0.000000000302 Rises=F Damp=F
 DIIS: error= 1.84D-07 at cycle   7 NSaved=   7.
 NSaved= 7 IEnMin= 7 EnMin= -1385.72739729108     IErMin= 7 ErrMin= 1.84D-07
 ErrMax= 1.84D-07  0.00D+00 EMaxC= 1.00D-01 BMatC= 3.40D-11 BMatP= 2.57D-10
 IDIUse=1 WtCom= 1.00D+00 WtEn= 0.00D+00
 Coeff-Com: -0.480D-03 0.705D-02 0.315D-01 0.279D-01 0.471D-01 0.281D+00
 Coeff-Com:  0.606D+00
 Coeff:     -0.480D-03 0.705D-02 0.315D-01 0.279D-01 0.471D-01 0.281D+00
 Coeff:      0.606D+00
 Gap=     0.089 Goal=   None    Shift=    0.000
 RMSDP=2.31D-08 MaxDP=7.91D-07 DE=-3.02D-10 OVMax= 2.55D-06

 Cycle  18  Pass 1  IDiag  1:
 RMSU=  1.89D-08    CP:  1.00D+00  9.93D-01  8.35D-01  3.94D-01  4.36D-01
                    CP:  8.51D-01  8.00D-01
 E= -1385.72739729107     Delta-E=        0.000000000010 Rises=F Damp=F
 DIIS: error= 1.02D-07 at cycle   8 NSaved=   8.
 NSaved= 8 IEnMin= 7 EnMin= -1385.72739729108     IErMin= 8 ErrMin= 1.02D-07
 ErrMax= 1.02D-07  0.00D+00 EMaxC= 1.00D-01 BMatC= 6.39D-12 BMatP= 3.40D-11
 IDIUse=1 WtCom= 1.00D+00 WtEn= 0.00D+00
 Coeff-Com: -0.218D-04-0.197D-02-0.747D-02-0.439D-02-0.689D-02 0.869D-01
 Coeff-Com:  0.355D+00 0.579D+00
 Coeff:     -0.218D-04-0.197D-02-0.747D-02-0.439D-02-0.689D-02 0.869D-01
 Coeff:      0.355D+00 0.579D+00
 Gap=     0.089 Goal=   None    Shift=    0.000
 RMSDP=1.10D-08 MaxDP=3.76D-07 DE= 1.05D-11 OVMax= 1.43D-06

 Cycle  19  Pass 1  IDiag  1:
 RMSU=  7.92D-09    CP:  1.00D+00  9.93D-01  8.35D-01  3.95D-01  4.36D-01
                    CP:  8.74D-01  8.75D-01  7.09D-01
 E= -1385.72739729106     Delta-E=        0.000000000013 Rises=F Damp=F
 DIIS: error= 4.63D-08 at cycle   9 NSaved=   9.
 NSaved= 9 IEnMin= 7 EnMin= -1385.72739729108     IErMin= 9 ErrMin= 4.63D-08
 ErrMax= 4.63D-08  0.00D+00 EMaxC= 1.00D-01 BMatC= 1.50D-12 BMatP= 6.39D-12
 IDIUse=1 WtCom= 1.00D+00 WtEn= 0.00D+00
 Coeff-Com:  0.639D-04-0.268D-02-0.109D-01-0.773D-02-0.140D-01 0.793D-02
 Coeff-Com:  0.133D+00 0.385D+00 0.508D+00
 Coeff:      0.639D-04-0.268D-02-0.109D-01-0.773D-02-0.140D-01 0.793D-02
 Coeff:      0.133D+00 0.385D+00 0.508D+00
 Gap=     0.089 Goal=   None    Shift=    0.000
 RMSDP=5.03D-09 MaxDP=2.08D-07 DE= 1.27D-11 OVMax= 6.70D-07

 SCF Done:  E(RB3LYP) =  -1385.72739729     A.U. after   19 cycles
            NFock= 19  Conv=0.50D-08     -V/T= 2.0078
 KE= 1.374954052814D+03 PE=-7.109323540653D+03 EE= 2.415194631757D+03
 Leave Link  502 at Mon Mar 25 11:36:15 2024, MaxMem=   104857600 cpu:             457.0 elap:             457.3
 (Enter /software/spackages_prod/apps/linux-ubuntu20.04-zen2/gcc-10.3.0/gaussian_sse4_kcl-16-C-6zka5bo66eu7gufawqnzn2az3c6hgggd/g16/l601.exe)
 Copying SCF densities to generalized density rwf, IOpCl= 0 IROHF=0.

 **********************************************************************

            Population analysis using the SCF Density.

 **********************************************************************

 Alpha  occ. eigenvalues --  -88.97402 -19.17794 -19.16948 -14.37787 -14.37682
 Alpha  occ. eigenvalues --  -14.37074 -14.33478 -10.25519 -10.25065 -10.24947
 Alpha  occ. eigenvalues --  -10.24822 -10.24384 -10.24137 -10.23778 -10.23079
 Alpha  occ. eigenvalues --  -10.22323 -10.21682 -10.21039 -10.20019 -10.18841
 Alpha  occ. eigenvalues --  -10.18424 -10.18117 -10.17533  -8.02939  -5.99484
 Alpha  occ. eigenvalues --   -5.98906  -5.98666  -1.05571  -1.03325  -1.01444
 Alpha  occ. eigenvalues --   -0.97646  -0.93807  -0.88846  -0.83907  -0.79994
 Alpha  occ. eigenvalues --   -0.79828  -0.77458  -0.74716  -0.73576  -0.70344
 Alpha  occ. eigenvalues --   -0.69855  -0.67632  -0.65957  -0.62777  -0.61842
 Alpha  occ. eigenvalues --   -0.59207  -0.57931  -0.56094  -0.52672  -0.52149
 Alpha  occ. eigenvalues --   -0.51667  -0.49910  -0.49215  -0.46870  -0.46648
 Alpha  occ. eigenvalues --   -0.46506  -0.45837  -0.45403  -0.45312  -0.44881
 Alpha  occ. eigenvalues --   -0.44807  -0.42863  -0.42822  -0.41026  -0.40072
 Alpha  occ. eigenvalues --   -0.39583  -0.39463  -0.38656  -0.38530  -0.38399
 Alpha  occ. eigenvalues --   -0.36136  -0.35614  -0.33564  -0.33499  -0.32569
 Alpha  occ. eigenvalues --   -0.32304  -0.32116  -0.29841  -0.28789  -0.28135
 Alpha  occ. eigenvalues --   -0.26815  -0.25815  -0.24657  -0.19786  -0.18582
 Alpha virt. eigenvalues --   -0.09666  -0.02724  -0.00097   0.00082   0.02308
 Alpha virt. eigenvalues --    0.04063   0.06756   0.08183   0.08675   0.09681
 Alpha virt. eigenvalues --    0.10646   0.11434   0.12336   0.13431   0.13860
 Alpha virt. eigenvalues --    0.14753   0.15583   0.15908   0.16420   0.16611
 Alpha virt. eigenvalues --    0.16998   0.17086   0.17126   0.17435   0.17767
 Alpha virt. eigenvalues --    0.19412   0.20169   0.22170   0.23087   0.23843
 Alpha virt. eigenvalues --    0.24096   0.25656   0.26941   0.27586   0.28590
 Alpha virt. eigenvalues --    0.29647   0.31242   0.32608   0.33769   0.34600
 Alpha virt. eigenvalues --    0.35413   0.37334   0.37634   0.39917   0.40703
 Alpha virt. eigenvalues --    0.42402   0.43862   0.44072   0.45636   0.47782
 Alpha virt. eigenvalues --    0.48608   0.49526   0.50914   0.51391   0.52026
 Alpha virt. eigenvalues --    0.52065   0.52984   0.54243   0.54395   0.54460
 Alpha virt. eigenvalues --    0.54912   0.55144   0.55760   0.56237   0.56726
 Alpha virt. eigenvalues --    0.56893   0.58474   0.58851   0.59192   0.60194
 Alpha virt. eigenvalues --    0.61446   0.61705   0.62501   0.62514   0.63611
 Alpha virt. eigenvalues --    0.64400   0.64483   0.65059   0.65993   0.66066
 Alpha virt. eigenvalues --    0.68409   0.69341   0.71150   0.72307   0.72592
 Alpha virt. eigenvalues --    0.72961   0.74902   0.76174   0.76789   0.78352
 Alpha virt. eigenvalues --    0.79234   0.80451   0.81142   0.81363   0.83202
 Alpha virt. eigenvalues --    0.84011   0.84356   0.84485   0.84996   0.85430
 Alpha virt. eigenvalues --    0.85776   0.86357   0.86746   0.87890   0.88339
 Alpha virt. eigenvalues --    0.88836   0.89305   0.90504   0.91541   0.91901
 Alpha virt. eigenvalues --    0.93375   0.93664   0.94250   0.95156   0.95635
 Alpha virt. eigenvalues --    0.96348   0.98236   0.99674   1.00536   1.00925
 Alpha virt. eigenvalues --    1.00974   1.01739   1.03375   1.04276   1.05902
 Alpha virt. eigenvalues --    1.06618   1.08317   1.10087   1.10684   1.11642
 Alpha virt. eigenvalues --    1.12158   1.14381   1.15836   1.17533   1.18523
 Alpha virt. eigenvalues --    1.20752   1.21771   1.21831   1.23301   1.23488
 Alpha virt. eigenvalues --    1.25748   1.27891   1.28566   1.33464   1.33794
 Alpha virt. eigenvalues --    1.34267   1.34619   1.36655   1.36668   1.38390
 Alpha virt. eigenvalues --    1.38956   1.39109   1.40297   1.40782   1.42716
 Alpha virt. eigenvalues --    1.44644   1.45088   1.46720   1.47688   1.48146
 Alpha virt. eigenvalues --    1.49293   1.51526   1.52236   1.52709   1.57929
 Alpha virt. eigenvalues --    1.58361   1.62341   1.64969   1.67175   1.68531
 Alpha virt. eigenvalues --    1.69958   1.71656   1.72701   1.73015   1.75746
 Alpha virt. eigenvalues --    1.76462   1.77216   1.79515   1.80024   1.81324
 Alpha virt. eigenvalues --    1.82955   1.84127   1.85779   1.86509   1.86865
 Alpha virt. eigenvalues --    1.87369   1.88994   1.90433   1.90484   1.90978
 Alpha virt. eigenvalues --    1.91730   1.92814   1.94863   1.95081   1.96868
 Alpha virt. eigenvalues --    1.97229   1.98463   1.99737   2.01048   2.02157
 Alpha virt. eigenvalues --    2.03926   2.04190   2.07545   2.08181   2.08324
 Alpha virt. eigenvalues --    2.08910   2.14304   2.16335   2.17537   2.18065
 Alpha virt. eigenvalues --    2.21149   2.21809   2.21931   2.22885   2.23535
 Alpha virt. eigenvalues --    2.23750   2.25251   2.25806   2.26040   2.27671
 Alpha virt. eigenvalues --    2.28514   2.28965   2.29726   2.30075   2.32431
 Alpha virt. eigenvalues --    2.35139   2.36439   2.37049   2.39411   2.40813
 Alpha virt. eigenvalues --    2.41287   2.43161   2.45960   2.47007   2.48714
 Alpha virt. eigenvalues --    2.49174   2.51898   2.53080   2.54589   2.58692
 Alpha virt. eigenvalues --    2.60415   2.60561   2.62743   2.62771   2.64483
 Alpha virt. eigenvalues --    2.65458   2.67221   2.68050   2.69223   2.71613
 Alpha virt. eigenvalues --    2.74513   2.79340   2.81085   2.82536   2.85513
 Alpha virt. eigenvalues --    2.86343   2.89190   2.92414   2.93983   2.96781
 Alpha virt. eigenvalues --    2.99638   3.00730   3.07161   3.14714   3.17720
 Alpha virt. eigenvalues --    3.30331   3.31566   3.42791   3.48595   3.84935
 Alpha virt. eigenvalues --    3.95759   3.97644   4.01460   4.05706   4.08629
 Alpha virt. eigenvalues --    4.10908   4.12042   4.12141   4.17250   4.21711
 Alpha virt. eigenvalues --    4.24285   4.26612   4.29825   4.34974   4.36487
 Alpha virt. eigenvalues --    4.41647   4.42264   4.52193   4.60413   4.68145
 Alpha virt. eigenvalues --    4.75544   4.99433
          Condensed to atoms (all electrons):
               1          2          3          4          5          6
     1  C    4.898910   0.242568  -0.040297  -0.008343   0.000556  -0.000011
     2  O    0.242568   8.221161   0.272244  -0.061528   0.002859  -0.000033
     3  C   -0.040297   0.272244   4.695577   0.456285   0.019529   0.005972
     4  C   -0.008343  -0.061528   0.456285   5.362531   0.407648  -0.090342
     5  C    0.000556   0.002859   0.019529   0.407648   4.758774   0.397818
     6  C   -0.000011  -0.000033   0.005972  -0.090342   0.397818   5.348185
     7  C    0.000000   0.000000  -0.000072   0.007298  -0.006894   0.499455
     8  C    0.000000  -0.000000   0.000003  -0.000209   0.005213  -0.051993
     9  N    0.000000   0.000000  -0.000000   0.000000  -0.000136   0.005144
    10  C    0.000000  -0.000000   0.000000  -0.000000   0.000003  -0.000137
    11  C   -0.000000  -0.000000   0.000000   0.000000  -0.000000  -0.000014
    12  C   -0.000000  -0.000000   0.000000  -0.000000  -0.000004   0.000233
    13  N   -0.000000   0.000000  -0.000000  -0.000000  -0.000000   0.000007
    14  S   -0.000000   0.000000  -0.000000  -0.000000  -0.000004   0.000524
    15  N   -0.000000   0.000000  -0.000000  -0.000012   0.000365  -0.018145
    16  C   -0.000000  -0.000000  -0.000000   0.000001   0.000549  -0.025097
    17  N   -0.000000  -0.000000  -0.000469   0.014059  -0.015114  -0.129520
    18  C    0.000000  -0.000000   0.000013  -0.000164   0.005036   0.007383
    19  C    0.000007   0.000042  -0.036208  -0.039801   0.477385  -0.043476
    20  C   -0.000093   0.003799  -0.058885  -0.068789  -0.063573   0.020507
    21  C    0.005309  -0.053632   0.449951  -0.056609  -0.028601  -0.000337
    22  O    0.000035  -0.001512  -0.053731   0.003717   0.000082  -0.000001
    23  C    0.000002   0.000033   0.005251  -0.000092   0.000005  -0.000000
    24  H    0.386191  -0.031767   0.003066   0.000035   0.000002   0.000000
    25  H    0.360454  -0.032382  -0.005309   0.005963  -0.000136  -0.000006
    26  H    0.360449  -0.032382  -0.005309   0.005965  -0.000138  -0.000007
    27  H    0.006055  -0.007676  -0.050982   0.351199  -0.033706  -0.006404
    28  H    0.000000  -0.000000  -0.000043  -0.005103  -0.033935   0.349175
    29  H    0.000000   0.000000  -0.000000   0.000000   0.000000   0.000002
    30  H   -0.000000  -0.000000  -0.000000  -0.000000   0.000000  -0.000000
    31  H    0.000000   0.000000  -0.000000  -0.000008  -0.000083  -0.000078
    32  H    0.000000   0.000000  -0.000000  -0.000008  -0.000094  -0.000064
    33  H    0.000000  -0.000000  -0.000000   0.000007   0.000051  -0.000500
    34  H    0.000002  -0.000043   0.003380   0.000244   0.004857  -0.000313
    35  H    0.000000  -0.000003  -0.000410  -0.000013   0.000003   0.000000
    36  H    0.000000  -0.000003  -0.000412  -0.000012   0.000003   0.000000
    37  H   -0.000001  -0.000003   0.000097   0.000006  -0.000000  -0.000000
               7          8          9         10         11         12
     1  C    0.000000   0.000000   0.000000   0.000000  -0.000000  -0.000000
     2  O    0.000000  -0.000000   0.000000  -0.000000  -0.000000  -0.000000
     3  C   -0.000072   0.000003  -0.000000   0.000000   0.000000   0.000000
     4  C    0.007298  -0.000209   0.000000  -0.000000   0.000000  -0.000000
     5  C   -0.006894   0.005213  -0.000136   0.000003  -0.000000  -0.000004
     6  C    0.499455  -0.051993   0.005144  -0.000137  -0.000014   0.000233
     7  C    4.860629   0.299224  -0.081994   0.005887  -0.000772   0.007724
     8  C    0.299224   4.910936   0.415973  -0.039960  -0.036160  -0.021800
     9  N   -0.081994   0.415973   6.997696   0.413245  -0.023735  -0.042366
    10  C    0.005887  -0.039960   0.413245   4.790542   0.495568  -0.001190
    11  C   -0.000772  -0.036160  -0.023735   0.495568   5.116513   0.415414
    12  C    0.007724  -0.021800  -0.042366  -0.001190   0.415414   4.783562
    13  N   -0.000123   0.010503   0.000253   0.004311  -0.072238   0.427980
    14  S   -0.000439   0.008511  -0.000310  -0.000293   0.009698  -0.091300
    15  N   -0.007665  -0.062539   0.005313  -0.000358   0.011032  -0.097927
    16  C   -0.068118   0.268855  -0.067176  -0.039832  -0.035250   0.371302
    17  N    0.319393  -0.031554  -0.006398   0.000037   0.000014  -0.000090
    18  C   -0.018838  -0.013297  -0.038579   0.000310  -0.000082   0.000012
    19  C   -0.074832   0.006010  -0.000022   0.000003   0.000000   0.000002
    20  C    0.000971  -0.000333  -0.000003  -0.000000  -0.000000   0.000000
    21  C    0.000086  -0.000000  -0.000000   0.000000  -0.000000   0.000000
    22  O    0.000000  -0.000000   0.000000  -0.000000  -0.000000  -0.000000
    23  C    0.000000   0.000000  -0.000000  -0.000000  -0.000000  -0.000000
    24  H    0.000000   0.000000  -0.000000  -0.000000   0.000000  -0.000000
    25  H   -0.000000   0.000000  -0.000000   0.000000   0.000000  -0.000000
    26  H    0.000000   0.000000  -0.000000  -0.000000   0.000000  -0.000000
    27  H   -0.000077   0.000002   0.000000  -0.000000   0.000000   0.000000
    28  H   -0.030833  -0.009795  -0.000086   0.000005  -0.000011   0.000549
    29  H   -0.000177   0.004332  -0.054094   0.378568  -0.060822   0.003003
    30  H    0.000020   0.000212   0.003884  -0.036632   0.345603  -0.029867
    31  H    0.000469   0.000564   0.000759  -0.000011   0.000001  -0.000000
    32  H    0.000475   0.000532   0.000794  -0.000009   0.000001  -0.000000
    33  H   -0.009063   0.001403   0.045235  -0.000090   0.000284   0.000001
    34  H   -0.000026   0.000011   0.000001  -0.000000   0.000000  -0.000000
    35  H    0.000000  -0.000000  -0.000000  -0.000000   0.000000   0.000000
    36  H    0.000000   0.000000  -0.000000  -0.000000   0.000000  -0.000000
    37  H    0.000000   0.000000  -0.000000  -0.000000  -0.000000  -0.000000
              13         14         15         16         17         18
     1  C   -0.000000  -0.000000  -0.000000  -0.000000  -0.000000   0.000000
     2  O    0.000000   0.000000   0.000000  -0.000000  -0.000000  -0.000000
     3  C   -0.000000  -0.000000  -0.000000  -0.000000  -0.000469   0.000013
     4  C   -0.000000  -0.000000  -0.000012   0.000001   0.014059  -0.000164
     5  C   -0.000000  -0.000004   0.000365   0.000549  -0.015114   0.005036
     6  C    0.000007   0.000524  -0.018145  -0.025097  -0.129520   0.007383
     7  C   -0.000123  -0.000439  -0.007665  -0.068118   0.319393  -0.018838
     8  C    0.010503   0.008511  -0.062539   0.268855  -0.031554  -0.013297
     9  N    0.000253  -0.000310   0.005313  -0.067176  -0.006398  -0.038579
    10  C    0.004311  -0.000293  -0.000358  -0.039832   0.000037   0.000310
    11  C   -0.072238   0.009698   0.011032  -0.035250   0.000014  -0.000082
    12  C    0.427980  -0.091300  -0.097927   0.371302  -0.000090   0.000012
    13  N    7.096982   0.249769  -0.076231  -0.078145  -0.000000   0.000000
    14  S    0.249769  15.084097   0.246187  -0.082465   0.000010  -0.000000
    15  N   -0.076231   0.246187   7.164544   0.398887   0.000035   0.000002
    16  C   -0.078145  -0.082465   0.398887   5.134453   0.006007  -0.000687
    17  N   -0.000000   0.000010   0.000035   0.006007   7.077968   0.288077
    18  C    0.000000  -0.000000   0.000002  -0.000687   0.288077   5.078753
    19  C    0.000000  -0.000000   0.000003  -0.000058   0.285803  -0.047231
    20  C    0.000000  -0.000000   0.000000   0.000001  -0.089549  -0.004274
    21  C   -0.000000   0.000000   0.000000  -0.000000   0.003864  -0.000099
    22  O    0.000000   0.000000  -0.000000   0.000000  -0.000017   0.000001
    23  C    0.000000  -0.000000   0.000000  -0.000000  -0.000005  -0.000008
    24  H   -0.000000   0.000000  -0.000000  -0.000000  -0.000000   0.000000
    25  H   -0.000000   0.000000  -0.000000  -0.000000   0.000000   0.000000
    26  H   -0.000000   0.000000  -0.000000  -0.000000   0.000000   0.000000
    27  H   -0.000000   0.000000  -0.000004  -0.000000  -0.000102   0.000002
    28  H    0.000036   0.000135   0.020263   0.001970   0.003682  -0.000073
    29  H   -0.000112   0.000010   0.000008   0.000798  -0.000007   0.000289
    30  H   -0.003057  -0.000354  -0.000053   0.005499  -0.000000   0.000001
    31  H   -0.000000   0.000000  -0.000000   0.000014  -0.041291   0.366488
    32  H   -0.000000   0.000000  -0.000000   0.000015  -0.041578   0.366560
    33  H   -0.000000   0.000001  -0.000007   0.000736  -0.025318   0.349849
    34  H   -0.000000   0.000000  -0.000000   0.000000  -0.008252   0.005594
    35  H   -0.000000   0.000000  -0.000000  -0.000000  -0.000001  -0.000003
    36  H   -0.000000   0.000000  -0.000000  -0.000000  -0.000001  -0.000003
    37  H    0.000000   0.000000  -0.000000  -0.000000  -0.000000   0.000000
              19         20         21         22         23         24
     1  C    0.000007  -0.000093   0.005309   0.000035   0.000002   0.386191
     2  O    0.000042   0.003799  -0.053632  -0.001512   0.000033  -0.031767
     3  C   -0.036208  -0.058885   0.449951  -0.053731   0.005251   0.003066
     4  C   -0.039801  -0.068789  -0.056609   0.003717  -0.000092   0.000035
     5  C    0.477385  -0.063573  -0.028601   0.000082   0.000005   0.000002
     6  C   -0.043476   0.020507  -0.000337  -0.000001  -0.000000   0.000000
     7  C   -0.074832   0.000971   0.000086   0.000000   0.000000   0.000000
     8  C    0.006010  -0.000333  -0.000000  -0.000000   0.000000   0.000000
     9  N   -0.000022  -0.000003  -0.000000   0.000000  -0.000000  -0.000000
    10  C    0.000003  -0.000000   0.000000  -0.000000  -0.000000  -0.000000
    11  C    0.000000  -0.000000  -0.000000  -0.000000  -0.000000   0.000000
    12  C    0.000002   0.000000   0.000000  -0.000000  -0.000000  -0.000000
    13  N    0.000000   0.000000  -0.000000   0.000000   0.000000  -0.000000
    14  S   -0.000000  -0.000000   0.000000   0.000000  -0.000000   0.000000
    15  N    0.000003   0.000000   0.000000  -0.000000   0.000000  -0.000000
    16  C   -0.000058   0.000001  -0.000000   0.000000  -0.000000  -0.000000
    17  N    0.285803  -0.089549   0.003864  -0.000017  -0.000005  -0.000000
    18  C   -0.047231  -0.004274  -0.000099   0.000001  -0.000008   0.000000
    19  C    4.711665   0.403061   0.020802   0.002925   0.000583  -0.000000
    20  C    0.403061   5.362608   0.470685  -0.059429  -0.008682   0.000007
    21  C    0.020802   0.470685   4.656457   0.275964  -0.039587   0.000105
    22  O    0.002925  -0.059429   0.275964   8.208967   0.239197  -0.000004
    23  C    0.000583  -0.008682  -0.039587   0.239197   4.903106  -0.000001
    24  H   -0.000000   0.000007   0.000105  -0.000004  -0.000001   0.532896
    25  H    0.000005  -0.000015  -0.000414  -0.000003   0.000000  -0.031153
    26  H    0.000005  -0.000015  -0.000412  -0.000003   0.000000  -0.031147
    27  H    0.005314   0.000174   0.003703  -0.000046   0.000003  -0.000106
    28  H    0.006056  -0.000108   0.000000  -0.000000   0.000000   0.000000
    29  H   -0.000000  -0.000000   0.000000   0.000000   0.000000   0.000000
    30  H    0.000000  -0.000000   0.000000  -0.000000   0.000000  -0.000000
    31  H   -0.002193   0.002654   0.000033  -0.000000  -0.000004  -0.000000
    32  H   -0.002073   0.002619   0.000027  -0.000000  -0.000004  -0.000000
    33  H    0.002089   0.000089   0.000001  -0.000000  -0.000000  -0.000000
    34  H   -0.029483   0.342034  -0.046748  -0.007816   0.006376  -0.000000
    35  H   -0.000124   0.005668  -0.005314  -0.031735   0.360447   0.000000
    36  H   -0.000118   0.005668  -0.005321  -0.031728   0.360440   0.000000
    37  H    0.000002   0.000084   0.002948  -0.031399   0.386640   0.000000
              25         26         27         28         29         30
     1  C    0.360454   0.360449   0.006055   0.000000   0.000000  -0.000000
     2  O   -0.032382  -0.032382  -0.007676  -0.000000   0.000000  -0.000000
     3  C   -0.005309  -0.005309  -0.050982  -0.000043  -0.000000  -0.000000
     4  C    0.005963   0.005965   0.351199  -0.005103   0.000000  -0.000000
     5  C   -0.000136  -0.000138  -0.033706  -0.033935   0.000000   0.000000
     6  C   -0.000006  -0.000007  -0.006404   0.349175   0.000002  -0.000000
     7  C   -0.000000   0.000000  -0.000077  -0.030833  -0.000177   0.000020
     8  C    0.000000   0.000000   0.000002  -0.009795   0.004332   0.000212
     9  N   -0.000000  -0.000000   0.000000  -0.000086  -0.054094   0.003884
    10  C    0.000000  -0.000000  -0.000000   0.000005   0.378568  -0.036632
    11  C    0.000000   0.000000   0.000000  -0.000011  -0.060822   0.345603
    12  C   -0.000000  -0.000000   0.000000   0.000549   0.003003  -0.029867
    13  N   -0.000000  -0.000000  -0.000000   0.000036  -0.000112  -0.003057
    14  S    0.000000   0.000000   0.000000   0.000135   0.000010  -0.000354
    15  N   -0.000000  -0.000000  -0.000004   0.020263   0.000008  -0.000053
    16  C   -0.000000  -0.000000  -0.000000   0.001970   0.000798   0.005499
    17  N    0.000000   0.000000  -0.000102   0.003682  -0.000007  -0.000000
    18  C    0.000000   0.000000   0.000002  -0.000073   0.000289   0.000001
    19  C    0.000005   0.000005   0.005314   0.006056  -0.000000   0.000000
    20  C   -0.000015  -0.000015   0.000174  -0.000108  -0.000000  -0.000000
    21  C   -0.000414  -0.000412   0.003703   0.000000   0.000000   0.000000
    22  O   -0.000003  -0.000003  -0.000046  -0.000000   0.000000  -0.000000
    23  C    0.000000   0.000000   0.000003   0.000000   0.000000   0.000000
    24  H   -0.031153  -0.031147  -0.000106   0.000000   0.000000  -0.000000
    25  H    0.596741  -0.049930   0.001807  -0.000000  -0.000000   0.000000
    26  H   -0.049930   0.596724   0.001813  -0.000000  -0.000000   0.000000
[...]
    16  C   -0.066866   0.273505  -0.063997  -0.039064  -0.037454   0.375426
    17  N    0.322942  -0.034760  -0.005809   0.000063   0.000013  -0.000085
    18  C   -0.022983  -0.011638  -0.030463   0.000141  -0.000067   0.000012
    19  C   -0.075950   0.005972   0.000026   0.000003   0.000000   0.000002
    20  C    0.001251  -0.000341  -0.000004  -0.000000  -0.000000   0.000000
    21  C    0.000097   0.000000  -0.000000   0.000000  -0.000000   0.000000
    22  O    0.000000  -0.000000   0.000000  -0.000000  -0.000000  -0.000000
    23  C    0.000000   0.000000  -0.000000  -0.000000  -0.000000  -0.000000
    24  H    0.000000   0.000000  -0.000000  -0.000000   0.000000  -0.000000
    25  H    0.000000   0.000000  -0.000000   0.000000   0.000000  -0.000000
    26  H   -0.000000   0.000000  -0.000000  -0.000000  -0.000000  -0.000000
    27  H   -0.000088   0.000002   0.000000  -0.000000   0.000000  -0.000000
    28  H   -0.032209  -0.008870  -0.000085   0.000005  -0.000010   0.000443
    29  H   -0.000191   0.004473  -0.055263   0.378192  -0.061759   0.003088
    30  H    0.000019   0.000175   0.003875  -0.036002   0.345992  -0.029964
    31  H    0.001130   0.000514   0.000513  -0.000013   0.000001  -0.000000
    32  H    0.000214   0.000348   0.000802   0.000001   0.000001  -0.000000
    33  H   -0.008403   0.001966   0.037912   0.000109   0.000230   0.000000
    34  H   -0.000034   0.000010   0.000001  -0.000000   0.000000  -0.000000
    35  H   -0.000000  -0.000000  -0.000000  -0.000000   0.000000   0.000000
    36  H    0.000000   0.000000  -0.000000   0.000000   0.000000  -0.000000
    37  H    0.000000   0.000000  -0.000000  -0.000000  -0.000000  -0.000000
              13         14         15         16         17         18
     1  C   -0.000000  -0.000000  -0.000000  -0.000000  -0.000000   0.000000
     2  O    0.000000   0.000000  -0.000000  -0.000000  -0.000000  -0.000000
     3  C   -0.000000  -0.000000  -0.000000  -0.000000  -0.000444   0.000017
     4  C   -0.000000  -0.000000  -0.000011  -0.000000   0.014003  -0.000172
     5  C   -0.000000  -0.000004   0.000234   0.000415  -0.016026   0.005436
     6  C    0.000006   0.000405  -0.013945  -0.020999  -0.125191   0.007493
     7  C   -0.000102  -0.000410  -0.007325  -0.066866   0.322942  -0.022983
     8  C    0.010325   0.008819  -0.063246   0.273505  -0.034760  -0.011638
     9  N    0.000234  -0.000340   0.005446  -0.063997  -0.005809  -0.030463
    10  C    0.004445  -0.000300  -0.000378  -0.039064   0.000063   0.000141
    11  C   -0.073896   0.010128   0.010934  -0.037454   0.000013  -0.000067
    12  C    0.434714  -0.095058  -0.102440   0.375426  -0.000085   0.000012
    13  N    7.090224   0.251424  -0.075226  -0.082692  -0.000000   0.000000
    14  S    0.251424  15.090373   0.249455  -0.086846   0.000010  -0.000000
    15  N   -0.075226   0.249455   7.148445   0.405455   0.000021   0.000001
    16  C   -0.082692  -0.086846   0.405455   5.125275   0.005620  -0.000593
    17  N   -0.000000   0.000010   0.000021   0.005620   7.052452   0.294430
    18  C    0.000000  -0.000000   0.000001  -0.000593   0.294430   5.060183
    19  C    0.000000  -0.000000   0.000007  -0.000031   0.288705  -0.049822
    20  C    0.000000   0.000000   0.000000   0.000001  -0.090186  -0.004770
    21  C   -0.000000   0.000000  -0.000000  -0.000000   0.003750  -0.000082
    22  O    0.000000   0.000000  -0.000000   0.000000  -0.000020   0.000001
    23  C    0.000000  -0.000000   0.000000  -0.000000  -0.000005  -0.000010
    24  H   -0.000000   0.000000  -0.000000  -0.000000  -0.000000   0.000000
    25  H   -0.000000   0.000000  -0.000000  -0.000000   0.000000  -0.000000
    26  H    0.000000  -0.000000   0.000000  -0.000000   0.000000   0.000000
    27  H   -0.000000   0.000000  -0.000003  -0.000000  -0.000100   0.000002
    28  H    0.000028   0.000108   0.016574   0.002244   0.003761  -0.000078
    29  H   -0.000116   0.000011   0.000009   0.000834  -0.000007   0.000238
    30  H   -0.003122  -0.000371  -0.000056   0.005442  -0.000000   0.000000
    31  H   -0.000000   0.000000  -0.000000   0.000009  -0.041150   0.369380
    32  H    0.000000   0.000000  -0.000000   0.000019  -0.044242   0.366508
    33  H   -0.000000   0.000001  -0.000006   0.000601  -0.024787   0.354721
    34  H   -0.000000   0.000000  -0.000000   0.000000  -0.008297   0.005844
    35  H   -0.000000   0.000000  -0.000000  -0.000000  -0.000001  -0.000002
    36  H   -0.000000  -0.000000  -0.000000   0.000000  -0.000001  -0.000004
    37  H    0.000000   0.000000  -0.000000  -0.000000  -0.000000   0.000000
              19         20         21         22         23         24
     1  C    0.000013  -0.000105   0.005596   0.000029   0.000003   0.386914
     2  O    0.000057   0.003735  -0.055558  -0.001570   0.000026  -0.034048
     3  C   -0.035020  -0.061845   0.448791  -0.055661   0.005572   0.003321
     4  C   -0.040490  -0.066367  -0.059439   0.003643  -0.000106   0.000008
     5  C    0.479904  -0.066002  -0.026950   0.000127   0.000010   0.000002
     6  C   -0.043139   0.020642  -0.000353  -0.000001  -0.000000   0.000000
     7  C   -0.075950   0.001251   0.000097   0.000000   0.000000   0.000000
     8  C    0.005972  -0.000341   0.000000  -0.000000   0.000000   0.000000
     9  N    0.000026  -0.000004  -0.000000   0.000000  -0.000000  -0.000000
    10  C    0.000003  -0.000000   0.000000  -0.000000  -0.000000  -0.000000
    11  C    0.000000  -0.000000  -0.000000  -0.000000  -0.000000   0.000000
    12  C    0.000002   0.000000   0.000000  -0.000000  -0.000000  -0.000000
    13  N    0.000000   0.000000  -0.000000   0.000000   0.000000  -0.000000
    14  S   -0.000000   0.000000   0.000000   0.000000  -0.000000   0.000000
    15  N    0.000007   0.000000  -0.000000  -0.000000   0.000000  -0.000000
    16  C   -0.000031   0.000001  -0.000000   0.000000  -0.000000  -0.000000
    17  N    0.288705  -0.090186   0.003750  -0.000020  -0.000005  -0.000000
    18  C   -0.049822  -0.004770  -0.000082   0.000001  -0.000010   0.000000
    19  C    4.719122   0.405350   0.018328   0.002788   0.000611  -0.000001
    20  C    0.405350   5.363785   0.475472  -0.061959  -0.008612   0.000008
    21  C    0.018328   0.475472   4.657312   0.287113  -0.044906   0.000135
    22  O    0.002788  -0.061959   0.287113   8.181973   0.249842  -0.000004
    23  C    0.000611  -0.008612  -0.044906   0.249842   4.893700  -0.000001
    24  H   -0.000001   0.000008   0.000135  -0.000004  -0.000001   0.538838
    25  H    0.000005  -0.000017  -0.000486  -0.000004   0.000000  -0.031861
    26  H    0.000007  -0.000018  -0.000478  -0.000004   0.000000  -0.031891
    27  H    0.005227   0.000181   0.003544  -0.000046   0.000003  -0.000111
    28  H    0.006294  -0.000118   0.000001  -0.000000   0.000000   0.000000
    29  H   -0.000000  -0.000000   0.000000   0.000000   0.000000   0.000000
    30  H    0.000000   0.000000   0.000000  -0.000000   0.000000  -0.000000
    31  H   -0.003442   0.002993   0.000102  -0.000000  -0.000007   0.000000
    32  H   -0.001944   0.002946  -0.000001  -0.000000  -0.000003   0.000000
    33  H    0.002180   0.000111   0.000001  -0.000000   0.000000  -0.000000
    34  H   -0.028255   0.341723  -0.045204  -0.007660   0.006751  -0.000000
    35  H   -0.000145   0.006576  -0.005818  -0.035057   0.361324   0.000000
    36  H   -0.000090   0.006560  -0.005787  -0.034968   0.361270   0.000000
    37  H    0.000002   0.000067   0.003211  -0.033700   0.387409   0.000000
              25         26         27         28         29         30
     1  C    0.361406   0.361488   0.006363   0.000000   0.000000  -0.000000
     2  O   -0.035686  -0.035703  -0.007565  -0.000000   0.000000  -0.000000
     3  C   -0.005865  -0.005698  -0.050053  -0.000052  -0.000000  -0.000000
     4  C    0.006984   0.006834   0.350494  -0.005202   0.000000  -0.000000
     5  C   -0.000134  -0.000147  -0.032227  -0.033939   0.000000   0.000000
     6  C   -0.000006  -0.000009  -0.006179   0.351494   0.000002  -0.000000
     7  C    0.000000  -0.000000  -0.000088  -0.032209  -0.000191   0.000019
     8  C    0.000000   0.000000   0.000002  -0.008870   0.004473   0.000175
     9  N   -0.000000  -0.000000   0.000000  -0.000085  -0.055263   0.003875
    10  C    0.000000  -0.000000  -0.000000   0.000005   0.378192  -0.036002
    11  C    0.000000  -0.000000   0.000000  -0.000010  -0.061759   0.345992
    12  C   -0.000000  -0.000000  -0.000000   0.000443   0.003088  -0.029964
    13  N   -0.000000   0.000000  -0.000000   0.000028  -0.000116  -0.003122
    14  S    0.000000  -0.000000   0.000000   0.000108   0.000011  -0.000371
    15  N   -0.000000   0.000000  -0.000003   0.016574   0.000009  -0.000056
    16  C   -0.000000  -0.000000  -0.000000   0.002244   0.000834   0.005442
    17  N    0.000000   0.000000  -0.000100   0.003761  -0.000007  -0.000000
    18  C   -0.000000   0.000000   0.000002  -0.000078   0.000238   0.000000
    19  C    0.000005   0.000007   0.005227   0.006294  -0.000000   0.000000
    20  C   -0.000017  -0.000018   0.000181  -0.000118  -0.000000   0.000000
    21  C   -0.000486  -0.000478   0.003544   0.000001   0.000000   0.000000
    22  O   -0.000004  -0.000004  -0.000046  -0.000000   0.000000  -0.000000
    23  C    0.000000   0.000000   0.000003   0.000000   0.000000   0.000000
    24  H   -0.031861  -0.031891  -0.000111   0.000000   0.000000  -0.000000
    25  H    0.605570  -0.051249   0.001793  -0.000001  -0.000000   0.000000
    26  H   -0.051249   0.605451   0.001770  -0.000000  -0.000000  -0.000000
    27  H    0.001793   0.001770   0.589537   0.002297   0.000000  -0.000000
    28  H   -0.000001  -0.000000   0.002297   0.528523   0.000000   0.000000
    29  H   -0.000000  -0.000000   0.000000   0.000000   0.589389  -0.002319
    30  H    0.000000  -0.000000  -0.000000   0.000000  -0.002319   0.563700
    31  H   -0.000000   0.000000   0.000000   0.000004  -0.000004  -0.000000
    32  H    0.000000  -0.000000   0.000000   0.000002  -0.000005  -0.000000
    33  H    0.000000  -0.000000  -0.000000  -0.000009  -0.000516  -0.000003
    34  H   -0.000000  -0.000000   0.000016   0.000003  -0.000000  -0.000000
    35  H   -0.000000   0.000000  -0.000000  -0.000000   0.000000  -0.000000
    36  H    0.000000  -0.000000  -0.000000  -0.000000  -0.000000   0.000000
    37  H    0.000000   0.000000  -0.000000   0.000000   0.000000   0.000000
              31         32         33         34         35         36
     1  C    0.000000   0.000000   0.000000   0.000003   0.000000   0.000000
     2  O    0.000000   0.000000  -0.000000  -0.000042  -0.000004  -0.000004
     3  C    0.000000  -0.000000  -0.000000   0.003220  -0.000478  -0.000485
     4  C   -0.000008  -0.000013   0.000007   0.000213  -0.000017  -0.000012
     5  C   -0.000149  -0.000069   0.000050   0.004644   0.000006   0.000001
     6  C   -0.000091   0.000020  -0.000469  -0.000296   0.000000   0.000000
     7  C    0.001130   0.000214  -0.008403  -0.000034  -0.000000   0.000000
     8  C    0.000514   0.000348   0.001966   0.000010  -0.000000   0.000000
     9  N    0.000513   0.000802   0.037912   0.000001  -0.000000  -0.000000
    10  C   -0.000013   0.000001   0.000109  -0.000000  -0.000000   0.000000
    11  C    0.000001   0.000001   0.000230   0.000000   0.000000   0.000000
    12  C   -0.000000  -0.000000   0.000000  -0.000000   0.000000  -0.000000
    13  N   -0.000000   0.000000  -0.000000  -0.000000  -0.000000  -0.000000
    14  S    0.000000   0.000000   0.000001   0.000000   0.000000  -0.000000
    15  N   -0.000000  -0.000000  -0.000006  -0.000000  -0.000000  -0.000000
    16  C    0.000009   0.000019   0.000601   0.000000  -0.000000   0.000000
    17  N   -0.041150  -0.044242  -0.024787  -0.008297  -0.000001  -0.000001
    18  C    0.369380   0.366508   0.354721   0.005844  -0.000002  -0.000004
    19  C   -0.003442  -0.001944   0.002180  -0.028255  -0.000145  -0.000090
    20  C    0.002993   0.002946   0.000111   0.341723   0.006576   0.006560
    21  C    0.000102  -0.000001   0.000001  -0.045204  -0.005818  -0.005787
    22  O   -0.000000  -0.000000  -0.000000  -0.007660  -0.035057  -0.034968
    23  C   -0.000007  -0.000003   0.000000   0.006751   0.361324   0.361270
    24  H    0.000000   0.000000  -0.000000  -0.000000   0.000000   0.000000
    25  H   -0.000000   0.000000   0.000000  -0.000000  -0.000000   0.000000
    26  H    0.000000  -0.000000  -0.000000  -0.000000   0.000000  -0.000000
    27  H    0.000000   0.000000  -0.000000   0.000016  -0.000000  -0.000000
    28  H    0.000004   0.000002  -0.000009   0.000003  -0.000000  -0.000000
    29  H   -0.000004  -0.000005  -0.000516  -0.000000   0.000000  -0.000000
    30  H   -0.000000  -0.000000  -0.000003  -0.000000  -0.000000   0.000000
    31  H    0.575921  -0.045634  -0.019241   0.001649  -0.000019   0.000037
    32  H   -0.045634   0.585880  -0.021808   0.000959   0.000027  -0.000009
    33  H   -0.019241  -0.021808   0.457353  -0.000076  -0.000000   0.000000
    34  H    0.001649   0.000959  -0.000076   0.586080   0.001923   0.001806
    35  H   -0.000019   0.000027  -0.000000   0.001923   0.602349  -0.050401
    36  H    0.000037  -0.000009   0.000000   0.001806  -0.050401   0.602144
    37  H   -0.000000  -0.000000   0.000000  -0.000131  -0.031527  -0.031467
              37
     1  C   -0.000001
     2  O   -0.000002
     3  C    0.000126
     4  C    0.000007
     5  C   -0.000000
     6  C   -0.000000
     7  C    0.000000
     8  C    0.000000
     9  N   -0.000000
    10  C   -0.000000
    11  C   -0.000000
    12  C   -0.000000
    13  N    0.000000
    14  S    0.000000
    15  N   -0.000000
    16  C   -0.000000
    17  N   -0.000000
    18  C    0.000000
    19  C    0.000002
    20  C    0.000067
    21  C    0.003211
    22  O   -0.033700
    23  C    0.387409
    24  H    0.000000
    25  H    0.000000
    26  H    0.000000
    27  H   -0.000000
    28  H    0.000000
    29  H    0.000000
    30  H    0.000000
    31  H   -0.000000
    32  H   -0.000000
    33  H    0.000000
    34  H   -0.000131
    35  H   -0.031527
    36  H   -0.031467
    37  H    0.533131
 Mulliken charges:
               1
     1  C   -0.210864
     2  O   -0.503031
     3  C    0.336817
     4  C   -0.288002
     5  C    0.108578
     6  C   -0.269855
     7  C    0.303004
     8  C    0.315488
     9  N   -0.556632
    10  C    0.025980
    11  C   -0.162312
    12  C    0.273883
    13  N   -0.556248
    14  S    0.572598
    15  N   -0.573947
    16  C    0.203696
    17  N   -0.594657
    18  C   -0.343720
    19  C    0.343725
    20  C   -0.271058
    21  C    0.341610
    22  O   -0.494863
    23  C   -0.212871
    24  H    0.168689
    25  H    0.149550
    26  H    0.149648
    27  H    0.135142
    28  H    0.168790
    29  H    0.143946
    30  H    0.152632
    31  H    0.157507
    32  H    0.156000
    33  H    0.220077
    34  H    0.135151
    35  H    0.151264
    36  H    0.151410
    37  H    0.172876
 Sum of Mulliken charges =  -0.00000
 Mulliken charges with hydrogens summed into heavy atoms:
               1
     1  C    0.257023
     2  O   -0.503031
     3  C    0.336817
     4  C   -0.152860
     5  C    0.108578
     6  C   -0.101066
     7  C    0.303004
     8  C    0.315488
     9  N   -0.556632
    10  C    0.169926
    11  C   -0.009680
    12  C    0.273883
    13  N   -0.556248
    14  S    0.572598
    15  N   -0.573947
    16  C    0.203696
    17  N   -0.594657
    18  C    0.189865
    19  C    0.343725
    20  C   -0.135907
    21  C    0.341610
    22  O   -0.494863
    23  C    0.262679
 Electronic spatial extent (au):  <R**2>=          10805.7698
 Charge=             -0.0000 electrons
 Dipole moment (field-independent basis, Debye):
    X=              1.0365    Y=             -1.2746    Z=             -0.7245  Tot=              1.7955
 Quadrupole moment (field-independent basis, Debye-Ang):
   XX=           -137.1386   YY=           -124.3322   ZZ=           -134.9334
   XY=              4.2597   XZ=              2.2814   YZ=              9.6906
 Traceless Quadrupole moment (field-independent basis, Debye-Ang):
   XX=             -5.0039   YY=              7.8025   ZZ=             -2.7986
   XY=              4.2597   XZ=              2.2814   YZ=              9.6906
 Octapole moment (field-independent basis, Debye-Ang**2):
  XXX=            317.4229  YYY=           -193.9527  ZZZ=            -90.6893  XYY=            139.1497
  XXY=           -100.6981  XXZ=            -40.5332  XZZ=            113.5419  YZZ=            -61.0862
  YYZ=            -28.0659  XYZ=             22.2197
 Hexadecapole moment (field-independent basis, Debye-Ang**3):
 XXXX=         -10867.8897 YYYY=          -2674.0393 ZZZZ=           -671.1169 XXXY=           1521.4781
 XXXZ=            233.0718 YYYX=           1074.8592 YYYZ=           -457.4332 ZZZX=            105.3494
 ZZZY=           -515.3884 XXYY=          -2128.6995 XXZZ=          -1884.0798 YYZZ=           -555.1677
 XXYZ=            -53.8668 YYXZ=             20.3060 ZZXY=            394.2181
 N-N= 1.940607987623D+03 E-N=-7.123713321794D+03  KE= 1.375305634006D+03
 No NMR shielding tensors so no spin-rotation constants.
 Leave Link  601 at Mon Mar 25 15:21:53 2024, MaxMem=   104857600 cpu:               1.3 elap:               1.4
 (Enter /software/spackages_prod/apps/linux-ubuntu20.04-zen2/gcc-10.3.0/gaussian_sse4_kcl-16-C-6zka5bo66eu7gufawqnzn2az3c6hgggd/g16/l9999.exe)
 Unable to Open any file for archive entry.
 1\1\GINC-ERC-HPC-COMP004\FOpt\RB3LYP\6-31G(d)\C16H14N4O2S1\K2255489\25
 -Mar-2024\0\\#p B3LYP/6-31G* opt, nosymm\\b_18_v2 opt Smile String: CO
 c1cc2cc(-c3nccc4nsnc34)n(C)c2cc1OC\\0,1\C,4.5965292605,2.0201327364,1.
 6637313446\O,4.4168962818,0.8094027357,0.9523983057\C,3.1392662282,0.4
 495643457,0.6323212771\C,2.0047638214,1.1716611839,0.9464729872\C,0.73
 89095232,0.6789229039,0.5486000076\C,-0.5861013586,1.1517714158,0.6871
 497966\C,-1.4436572428,0.2279313907,0.0897947664\C,-2.8939283365,0.288
 3139228,0.0470643762\N,-3.5955615686,-0.7784923687,-0.3205128527\C,-4.
 9579148466,-0.7614841226,-0.3504612472\C,-5.7507630948,0.3045572771,-0
 .0134149444\C,-5.0714852566,1.4866273632,0.381989449\N,-5.6323280301,2
 .6489651532,0.7362372085\S,-4.3902088435,3.6740352384,1.0756092835\N,-
 3.1137137796,2.6774209748,0.7858254015\C,-3.6203863364,1.5000527449,0.
 4149025222\N,-0.6618541757,-0.8267423525,-0.4189659688\C,-1.0496844624
 ,-1.9674736581,-1.2384272286\C,0.6578964662,-0.5483805605,-0.152536998
 3\C,1.8045062823,-1.2905271521,-0.4862880154\C,3.0375633033,-0.7908945
 988,-0.0913652527\O,4.2294570357,-1.3975858584,-0.3374531635\C,4.21927
 36944,-2.6247976011,-1.0456742942\H,5.6726277082,2.1202949073,1.817840
 3128\H,4.0899206224,1.9954539876,2.6384559496\H,4.2287752668,2.8834820
 852,1.0921262604\H,2.0720246217,2.1085097864,1.4870134458\H,-0.9063711
 554,2.0578801444,1.1756109261\H,-5.4118100068,-1.6975505269,-0.6689999
 375\H,-6.8331260806,0.2631585368,-0.0474442176\H,-0.6502147761,-2.8884
 787175,-0.7979956588\H,-0.6478676803,-1.8615566897,-2.2542522365\H,-2.
 1332688978,-2.0280709125,-1.2681049782\H,1.7289162322,-2.2225378259,-1
 .0313680408\H,3.7925039268,-2.5064321966,-2.0508560132\H,3.6565233552,
 -3.3975706,-0.5047056096\H,5.2639122992,-2.9295430923,-1.1294969627\\V
 ersion=ES64L-G16RevC.01\HF=-1385.7314242\RMSD=4.250e-09\RMSF=2.577e-06
 \Dipole=0.4077881,-0.501465,-0.2850551\Quadrupole=-3.7202765,5.8009998
 ,-2.0807233,3.1669931,1.6961901,7.2047537\PG=C01 [X(C16H14N4O2S1)]\\@
 The archive entry for this job was punched.


 FESTINA LENTE!
     - IMPERATOR AUGUSTUS 
 Job cpu time:       0 days  3 hours 53 minutes 28.0 seconds.
 Elapsed time:       0 days  3 hours 53 minutes 34.2 seconds.
 File lengths (MBytes):  RWF=    148 Int=      0 D2E=      0 Chk=     16 Scr=      8
 Normal termination of Gaussian 16 at Mon Mar 25 15:21:53 2024.
