 Entering Gaussian System, Link 0=g16
 Input=b_18_v2_sp_a.com
 Output=b_18_v2_sp_a.log
 Initial command:
 /software/spackages_v0_21_prod/apps/linux-ubuntu22.04-zen2/gcc-13.2.0/gaussian_sse4-16-C-g6jkfwqig4o4stofyyxv7ma3rrfxhpfk/g16/l1.exe "/scratch/prj/mime/TSJ_funnel_project/paper_fix_dimers/b_18_v2/Gau-580312.inp" -scrdir="/scratch/prj/mime/TSJ_funnel_project/paper_fix_dimers/b_18_v2/"
 Entering Link 1 = /software/spackages_v0_21_prod/apps/linux-ubuntu22.04-zen2/gcc-13.2.0/gaussian_sse4-16-C-g6jkfwqig4o4stofyyxv7ma3rrfxhpfk/g16/l1.exe PID=    580339.
  
 Copyright (c) 1988-2019, Gaussian, Inc.  All Rights Reserved.
  
 This is part of the Gaussian(R) 16 program.  It is based on
 the Gaussian(R) 09 system (copyright 2009, Gaussian, Inc.),
 the Gaussian(R) 03 system (copyright 2003, Gaussian, Inc.),
 the Gaussian(R) 98 system (copyright 1998, Gaussian, Inc.),
 the Gaussian(R) 94 system (copyright 1995, Gaussian, Inc.),
 the Gaussian 92(TM) system (copyright 1992, Gaussian, Inc.),
 the Gaussian 90(TM) system (copyright 1990, Gaussian, Inc.),
 the Gaussian 88(TM) system (copyright 1988, Gaussian, Inc.),
 the Gaussian 86(TM) system (copyright 1986, Carnegie Mellon
 University), and the Gaussian 82(TM) system (copyright 1983,
 Carnegie Mellon University). Gaussian is a federally registered
 trademark of Gaussian, Inc.
  
 This software contains proprietary and confidential information,
 including trade secrets, belonging to Gaussian, Inc.
  
 This software is provided under written license and may be
 used, copied, transmitted, or stored only in accord with that
 written license.
  
 The following legend is applicable only to US Government
 contracts under FAR:
  
                    RESTRICTED RIGHTS LEGEND
  
 Use, reproduction and disclosure by the US Government is
 subject to restrictions as set forth in subparagraphs (a)
 and (c) of the Commercial Computer Software - Restricted
 Rights clause in FAR 52.227-19.
  
 Gaussian, Inc.
 340 Quinnipiac St., Bldg. 40, Wallingford CT 06492
  
  
 ---------------------------------------------------------------
 Warning -- This program may not be used in any manner that
 competes with the business of Gaussian, Inc. or will provide
 assistance to any competitor of Gaussian, Inc.  The licensee
 of this program is prohibited from giving any competitor of
 Gaussian, Inc. access to this program.  By using this program,
 the user acknowledges that Gaussian, Inc. is engaged in the
 business of creating and licensing software in the field of
 computational chemistry and represents and warrants to the
 licensee that it is not a competitor of Gaussian, Inc. and that
 it will not use this program in any manner prohibited above.
 ---------------------------------------------------------------
  

 Cite this work as:
 Gaussian 16, Revision C.01,
 M. J. Frisch, G. W. Trucks, H. B. Schlegel, G. E. Scuseria, 
 M. A. Robb, J. R. Cheeseman, G. Scalmani, V. Barone, 
 G. A. Petersson, H. Nakatsuji, X. Li, M. Caricato, A. V. Marenich, 
 J. Bloino, B. G. Janesko, R. Gomperts, B. Mennucci, H. P. Hratchian, 
 J. V. Ortiz, A. F. Izmaylov, J. L. Sonnenberg, D. Williams-Young, 
 F. Ding, F. Lipparini, F. Egidi, J. Goings, B. Peng, A. Petrone, 
 T. Henderson, D. Ranasinghe, V. G. Zakrzewski, J. Gao, N. Rega, 
 G. Zheng, W. Liang, M. Hada, M. Ehara, K. Toyota, R. Fukuda, 
 J. Hasegawa, M. Ishida, T. Nakajima, Y. Honda, O. Kitao, H. Nakai, 
 T. Vreven, K. Throssell, J. A. Montgomery, Jr., J. E. Peralta, 
 F. Ogliaro, M. J. Bearpark, J. J. Heyd, E. N. Brothers, K. N. Kudin, 
 V. N. Staroverov, T. A. Keith, R. Kobayashi, J. Normand, 
 K. Raghavachari, A. P. Rendell, J. C. Burant, S. S. Iyengar, 
 J. Tomasi, M. Cossi, J. M. Millam, M. Klene, C. Adamo, R. Cammi, 
 J. W. Ochterski, R. L. Martin, K. Morokuma, O. Farkas, 
 J. B. Foresman, and D. J. Fox, Gaussian, Inc., Wallingford CT, 2019.
 
 ******************************************
 Gaussian 16:  ES64L-G16RevC.01  3-Jul-2019
                 1-Jun-2024 
 ******************************************
 %OldChk=b_18_v2_opt.chk
 %NProc=4
 Will use up to    4 processors via shared memory.
 %Chk=b_18_v2_sp_a.chk
 Copying data from "b_18_v2_opt.chk" to current chk file "b_18_v2_sp_a.chk"
 IOpt=  2 FromEx=T IUOpen= 4 IOptOp= 5 NList=   0 IFRang= 0 IUIn= 4 IUOut= 2.
 -------------------------------------------
 #p B3LYP/6-31G* SP, Geom=Checkpoint, nosymm
 -------------------------------------------
 1/29=2,38=1,172=1/1;
 2/12=2,15=1,40=1/2;
 3/5=1,6=6,7=1,11=2,14=-4,25=1,30=1,74=-5/1,2,3;
 4//1;
 5/5=2,38=5/2;
 6/7=2,8=2,9=2,10=2,28=1/1;
 99/5=1,9=1/99;
 Leave Link    1 at Sat Jun  1 12:49:30 2024, MaxMem=   104857600 cpu:               0.4 elap:               0.4
 (Enter /software/spackages_v0_21_prod/apps/linux-ubuntu22.04-zen2/gcc-13.2.0/gaussian_sse4-16-C-g6jkfwqig4o4stofyyxv7ma3rrfxhpfk/g16/l101.exe)
 ---------------------------------------------------------------
 b_18_v2 sp_a Smile String: COc1cc2cc(-c3nccc4nsnc34)n(C)c2cc1OC
 ---------------------------------------------------------------
 Structure from the checkpoint file:  "b_18_v2_sp_a.chk"
 Charge = -1 Multiplicity = 2
 Redundant internal coordinates found in file.  (old form).
 C,0,4.5965292605,2.0201327364,1.6637313446
 O,0,4.4168962818,0.8094027357,0.9523983057
 C,0,3.1392662282,0.4495643457,0.6323212771
 C,0,2.0047638214,1.1716611839,0.9464729872
 C,0,0.7389095232,0.6789229039,0.5486000076
 C,0,-0.5861013586,1.1517714158,0.6871497966
 C,0,-1.4436572428,0.2279313907,0.0897947664
 C,0,-2.8939283365,0.2883139228,0.0470643762
 N,0,-3.5955615686,-0.7784923687,-0.3205128527
 C,0,-4.9579148466,-0.7614841226,-0.3504612472
 C,0,-5.7507630948,0.3045572771,-0.0134149444
 C,0,-5.0714852566,1.4866273632,0.381989449
 N,0,-5.6323280301,2.6489651532,0.7362372085
 S,0,-4.3902088435,3.6740352384,1.0756092835
 N,0,-3.1137137796,2.6774209748,0.7858254015
 C,0,-3.6203863364,1.5000527449,0.4149025222
 N,0,-0.6618541757,-0.8267423525,-0.4189659688
 C,0,-1.0496844624,-1.9674736581,-1.2384272286
 C,0,0.6578964662,-0.5483805605,-0.1525369983
 C,0,1.8045062823,-1.2905271521,-0.4862880154
 C,0,3.0375633033,-0.7908945988,-0.0913652527
 O,0,4.2294570357,-1.3975858584,-0.3374531635
 C,0,4.2192736944,-2.6247976011,-1.0456742942
 H,0,5.6726277082,2.1202949073,1.8178403128
 H,0,4.0899206224,1.9954539876,2.6384559496
 H,0,4.2287752668,2.8834820852,1.0921262604
 H,0,2.0720246217,2.1085097864,1.4870134458
 H,0,-0.9063711554,2.0578801444,1.1756109261
 H,0,-5.4118100068,-1.6975505269,-0.6689999375
 H,0,-6.8331260806,0.2631585368,-0.0474442176
 H,0,-0.6502147761,-2.8884787175,-0.7979956588
 H,0,-0.6478676803,-1.8615566897,-2.2542522365
 H,0,-2.1332688978,-2.0280709125,-1.2681049782
 H,0,1.7289162322,-2.2225378259,-1.0313680408
 H,0,3.7925039268,-2.5064321966,-2.0508560132
 H,0,3.6565233552,-3.3975706,-0.5047056096
 H,0,5.2639122992,-2.9295430923,-1.1294969627
 Recover connectivity data from disk.
 ITRead=  0  0  0  0  0  0  0  0  0  0  0  0  0  0  0  0  0  0  0  0
 ITRead=  0  0  0  0  0  0  0  0  0  0  0  0  0  0  0  0  0
 MicOpt= -1 -1 -1 -1 -1 -1 -1 -1 -1 -1 -1 -1 -1 -1 -1 -1 -1 -1 -1 -1
 MicOpt= -1 -1 -1 -1 -1 -1 -1 -1 -1 -1 -1 -1 -1 -1 -1 -1 -1
                           ----------------------------
                           !    Current Parameters    !
                           ! (Angstroms and Degrees)  !
 --------------------------                            --------------------------
 ! Name  Definition              Value                                          !
 --------------------------------------------------------------------------------
 ! R1    R(1,2)                  1.4157                                         !
 ! R2    R(1,24)                 1.0917                                         !
 ! R3    R(1,25)                 1.0988                                         !
 ! R4    R(1,26)                 1.0988                                         !
 ! R5    R(2,3)                  1.3654                                         !
 ! R6    R(3,4)                  1.381                                          !
 ! R7    R(3,21)                 1.4397                                         !
 ! R8    R(4,5)                  1.4154                                         !
 ! R9    R(4,27)                 1.0837                                         !
 ! R10   R(5,6)                  1.4137                                         !
 ! R11   R(5,19)                 1.4158                                         !
 ! R12   R(6,7)                  1.3949                                         !
 ! R13   R(6,28)                 1.0781                                         !
 ! R14   R(7,8)                  1.4522                                         !
 ! R15   R(7,17)                 1.408                                          !
 ! R16   R(8,9)                  1.3287                                         !
 ! R17   R(8,16)                 1.4599                                         !
 ! R18   R(9,10)                 1.3628                                         !
 ! R19   R(10,11)                1.3706                                         !
 ! R20   R(10,29)                1.088                                          !
 ! R21   R(11,12)                1.4195                                         !
 ! R22   R(11,30)                1.0837                                         !
 ! R23   R(12,13)                1.3383                                         !
 ! R24   R(12,16)                1.4515                                         !
 ! R25   R(13,14)                1.6458                                         !
 ! R26   R(14,15)                1.6452                                         !
 ! R27   R(15,16)                1.3344                                         !
 ! R28   R(17,18)                1.4571                                         !
 ! R29   R(17,19)                1.3748                                         !
 ! R30   R(18,31)                1.0963                                         !
 ! R31   R(18,32)                1.0975                                         !
 ! R32   R(18,33)                1.0857                                         !
 ! R33   R(19,20)                1.406                                          !
 ! R34   R(20,21)                1.3878                                         !
 ! R35   R(20,34)                1.0823                                         !
 ! R36   R(21,22)                1.3599                                         !
 ! R37   R(22,23)                1.4169                                         !
 ! R38   R(23,35)                1.0984                                         !
 ! R39   R(23,36)                1.0984                                         !
 ! R40   R(23,37)                1.0914                                         !
 ! A1    A(2,1,24)             105.9309                                         !
 ! A2    A(2,1,25)             111.5937                                         !
 ! A3    A(2,1,26)             111.5996                                         !
 ! A4    A(24,1,25)            109.3484                                         !
 ! A5    A(24,1,26)            109.3451                                         !
 ! A6    A(25,1,26)            108.954                                          !
 ! A7    A(1,2,3)              117.5108                                         !
 ! A8    A(2,3,4)              125.2801                                         !
 ! A9    A(2,3,21)             114.2678                                         !
 ! A10   A(4,3,21)             120.4521                                         !
 ! A11   A(3,4,5)              119.2562                                         !
 ! A12   A(3,4,27)             120.964                                          !
 ! A13   A(5,4,27)             119.7792                                         !
 ! A14   A(4,5,6)              133.9671                                         !
 ! A15   A(4,5,19)             119.4822                                         !
 ! A16   A(6,5,19)             106.5505                                         !
 ! A17   A(5,6,7)              108.2238                                         !
 ! A18   A(5,6,28)             127.1565                                         !
 ! A19   A(7,6,28)             124.6153                                         !
 ! A20   A(6,7,8)              126.8017                                         !
 ! A21   A(6,7,17)             108.0283                                         !
 ! A22   A(8,7,17)             125.104                                          !
 ! A23   A(7,8,9)              120.1407                                         !
 ! A24   A(7,8,16)             121.6046                                         !
 ! A25   A(9,8,16)             118.2514                                         !
 ! A26   A(8,9,10)             121.5973                                         !
 ! A27   A(9,10,11)            125.6315                                         !
 ! A28   A(9,10,29)            114.3779                                         !
 ! A29   A(11,10,29)           119.9894                                         !
 ! A30   A(10,11,12)           116.0629                                         !
 ! A31   A(10,11,30)           122.7047                                         !
 ! A32   A(12,11,30)           121.2315                                         !
 ! A33   A(11,12,13)           126.6144                                         !
 ! A34   A(11,12,16)           119.4984                                         !
 ! A35   A(13,12,16)           113.8854                                         !
 ! A36   A(12,13,14)           106.2148                                         !
 ! A37   A(13,14,15)            99.9017                                         !
 ! A38   A(14,15,16)           106.7892                                         !
 ! A39   A(8,16,12)            118.9511                                         !
 ! A40   A(8,16,15)            127.8393                                         !
 ! A41   A(12,16,15)           113.2076                                         !
 ! A42   A(7,17,18)            129.9296                                         !
 ! A43   A(7,17,19)            108.1393                                         !
 ! A44   A(18,17,19)           121.5326                                         !
 ! A45   A(17,18,31)           109.5592                                         !
 ! A46   A(17,18,32)           110.3358                                         !
 ! A47   A(17,18,33)           108.9484                                         !
 ! A48   A(31,18,32)           108.6336                                         !
 ! A49   A(31,18,33)           109.1339                                         !
 ! A50   A(32,18,33)           110.2116                                         !
 ! A51   A(5,19,17)            109.0511                                         !
 ! A52   A(5,19,20)            121.9013                                         !
 ! A53   A(17,19,20)           129.0464                                         !
 ! A54   A(19,20,21)           117.8389                                         !
 ! A55   A(19,20,34)           121.1387                                         !
 ! A56   A(21,20,34)           121.0222                                         !
 ! A57   A(3,21,20)            121.0635                                         !
 ! A58   A(3,21,22)            114.4211                                         !
 ! A59   A(20,21,22)           124.5154                                         !
 ! A60   A(21,22,23)           118.0701                                         !
 ! A61   A(22,23,35)           111.5219                                         !
 ! A62   A(22,23,36)           111.5215                                         !
 ! A63   A(22,23,37)           105.8633                                         !
 ! A64   A(35,23,36)           109.1141                                         !
 ! A65   A(35,23,37)           109.3712                                         !
 ! A66   A(36,23,37)           109.3755                                         !
 ! D1    D(24,1,2,3)           179.9497                                         !
 ! D2    D(25,1,2,3)            61.0337                                         !
 ! D3    D(26,1,2,3)           -61.135                                          !
 ! D4    D(1,2,3,4)             -0.0048                                         !
 ! D5    D(1,2,3,21)           179.9171                                         !
 ! D6    D(2,3,4,5)            179.8999                                         !
 ! D7    D(2,3,4,27)             0.1924                                         !
 ! D8    D(21,3,4,5)            -0.0176                                         !
 ! D9    D(21,3,4,27)         -179.725                                          !
 ! D10   D(2,3,21,20)          179.9265                                         !
 ! D11   D(2,3,21,22)           -0.0686                                         !
 ! D12   D(4,3,21,20)           -0.1474                                         !
 ! D13   D(4,3,21,22)          179.8575                                         !
 ! D14   D(3,4,5,6)           -179.28                                           !
 ! D15   D(3,4,5,19)             0.544                                          !
 ! D16   D(27,4,5,6)             0.431                                          !
 ! D17   D(27,4,5,19)         -179.745                                          !
 ! D18   D(4,5,6,7)           -179.8709                                         !
 ! D19   D(4,5,6,28)            -0.605                                          !
 ! D20   D(19,5,6,7)             0.289                                          !
 ! D21   D(19,5,6,28)          179.5549                                         !
 ! D22   D(4,5,19,17)          179.411                                          !
 ! D23   D(4,5,19,20)           -0.9411                                         !
 ! D24   D(6,5,19,17)           -0.7212                                         !
 ! D25   D(6,5,19,20)          178.9267                                         !
 ! D26   D(5,6,7,8)            177.3838                                         !
 ! D27   D(5,6,7,17)             0.2343                                         !
 ! D28   D(28,6,7,8)            -1.9054                                         !
 ! D29   D(28,6,7,17)         -179.0548                                         !
 ! D30   D(6,7,8,9)           -166.7678                                         !
 ! D31   D(6,7,8,16)            12.5613                                         !
 ! D32   D(17,7,8,9)             9.9185                                         !
 ! D33   D(17,7,8,16)         -170.7525                                         !
 ! D34   D(6,7,17,18)         -173.3808                                         !
 ! D35   D(6,7,17,19)           -0.6858                                         !
 ! D36   D(8,7,17,18)            9.4091                                         !
 ! D37   D(8,7,17,19)         -177.8959                                         !
 ! D38   D(7,8,9,10)           178.9297                                         !
 ! D39   D(16,8,9,10)           -0.4216                                         !
 ! D40   D(7,8,16,12)         -178.5371                                         !
 ! D41   D(7,8,16,15)            2.0044                                         !
 ! D42   D(9,8,16,12)            0.8042                                         !
 ! D43   D(9,8,16,15)         -178.6543                                         !
 ! D44   D(8,9,10,11)           -0.4242                                         !
 ! D45   D(8,9,10,29)          179.9876                                         !
 ! D46   D(9,10,11,12)           0.814                                          !
 ! D47   D(9,10,11,30)        -179.512                                          !
 ! D48   D(29,10,11,12)       -179.619                                          !
 ! D49   D(29,10,11,30)          0.0549                                         !
 ! D50   D(10,11,12,13)        179.1144                                         !
 ! D51   D(10,11,12,16)         -0.3599                                         !
 ! D52   D(30,11,12,13)         -0.5647                                         !
 ! D53   D(30,11,12,16)        179.961                                          !
 ! D54   D(11,12,13,14)       -179.2443                                         !
 ! D55   D(16,12,13,14)          0.2553                                         !
 ! D56   D(11,12,16,8)          -0.4043                                         !
 ! D57   D(11,12,16,15)        179.1304                                         !
 ! D58   D(13,12,16,8)        -179.9428                                         !
 ! D59   D(13,12,16,15)         -0.4081                                         !
 ! D60   D(12,13,14,15)         -0.0542                                         !
 ! D61   D(13,14,15,16)         -0.1711                                         !
 ! D62   D(14,15,16,8)         179.82                                           !
 ! D63   D(14,15,16,12)          0.3356                                         !
 ! D64   D(7,17,18,31)        -130.7424                                         !
 ! D65   D(7,17,18,32)         109.7002                                         !
 ! D66   D(7,17,18,33)         -11.418                                          !
 ! D67   D(19,17,18,31)         57.4077                                         !
 ! D68   D(19,17,18,32)        -62.1498                                         !
 ! D69   D(19,17,18,33)        176.732                                          !
 ! D70   D(7,17,19,5)            0.8731                                         !
 ! D71   D(7,17,19,20)        -178.742                                          !
 ! D72   D(18,17,19,5)         174.3043                                         !
 ! D73   D(18,17,19,20)         -5.3107                                         !
 ! D74   D(5,19,20,21)           0.7674                                         !
 ! D75   D(5,19,20,34)        -179.3783                                         !
 ! D76   D(17,19,20,21)       -179.6612                                         !
 ! D77   D(17,19,20,34)          0.1931                                         !
 ! D78   D(19,20,21,3)          -0.221                                          !
 ! D79   D(19,20,21,22)        179.7736                                         !
 ! D80   D(34,20,21,3)         179.9245                                         !
 ! D81   D(34,20,21,22)         -0.0809                                         !
 ! D82   D(3,21,22,23)        -179.9953                                         !
 ! D83   D(20,21,22,23)          0.0098                                         !
 ! D84   D(21,22,23,35)         61.1851                                         !
 ! D85   D(21,22,23,36)        -61.083                                          !
 ! D86   D(21,22,23,37)       -179.9515                                         !
 --------------------------------------------------------------------------------
 NAtoms=     37 NQM=       37 NQMF=       0 NMMI=      0 NMMIF=      0
                NMic=       0 NMicF=      0.
                    Isotopes and Nuclear Properties:
 (Nuclear quadrupole moments (NQMom) in fm**2, nuclear magnetic moments (NMagM)
  in nuclear magnetons)

  Atom         1           2           3           4           5           6           7           8           9          10
 IAtWgt=          12          16          12          12          12          12          12          12          14          12
 AtmWgt=  12.0000000  15.9949146  12.0000000  12.0000000  12.0000000  12.0000000  12.0000000  12.0000000  14.0030740  12.0000000
 NucSpn=           0           0           0           0           0           0           0           0           2           0
 AtZEff=   3.6000000   5.6000000   3.6000000   3.6000000   3.6000000   3.6000000   3.6000000   3.6000000   4.5500000   3.6000000
 NQMom=    0.0000000   0.0000000   0.0000000   0.0000000   0.0000000   0.0000000   0.0000000   0.0000000   2.0440000   0.0000000
 NMagM=    0.0000000   0.0000000   0.0000000   0.0000000   0.0000000   0.0000000   0.0000000   0.0000000   0.4037610   0.0000000
 AtZNuc=   6.0000000   8.0000000   6.0000000   6.0000000   6.0000000   6.0000000   6.0000000   6.0000000   7.0000000   6.0000000

  Atom        11          12          13          14          15          16          17          18          19          20
 IAtWgt=          12          12          14          32          14          12          14          12          12          12
 AtmWgt=  12.0000000  12.0000000  14.0030740  31.9720718  14.0030740  12.0000000  14.0030740  12.0000000  12.0000000  12.0000000
 NucSpn=           0           0           2           0           2           0           2           0           0           0
 AtZEff=   3.6000000   3.6000000   4.5500000  13.6000000   4.5500000   3.6000000   4.5500000   3.6000000   3.6000000   3.6000000
 NQMom=    0.0000000   0.0000000   2.0440000   0.0000000   2.0440000   0.0000000   2.0440000   0.0000000   0.0000000   0.0000000
 NMagM=    0.0000000   0.0000000   0.4037610   0.0000000   0.4037610   0.0000000   0.4037610   0.0000000   0.0000000   0.0000000
 AtZNuc=   6.0000000   6.0000000   7.0000000  16.0000000   7.0000000   6.0000000   7.0000000   6.0000000   6.0000000   6.0000000

  Atom        21          22          23          24          25          26          27          28          29          30
 IAtWgt=          12          16          12           1           1           1           1           1           1           1
 AtmWgt=  12.0000000  15.9949146  12.0000000   1.0078250   1.0078250   1.0078250   1.0078250   1.0078250   1.0078250   1.0078250
 NucSpn=           0           0           0           1           1           1           1           1           1           1
 AtZEff=   3.6000000   5.6000000   3.6000000   1.0000000   1.0000000   1.0000000   1.0000000   1.0000000   1.0000000   1.0000000
 NQMom=    0.0000000   0.0000000   0.0000000   0.0000000   0.0000000   0.0000000   0.0000000   0.0000000   0.0000000   0.0000000
 NMagM=    0.0000000   0.0000000   0.0000000   2.7928460   2.7928460   2.7928460   2.7928460   2.7928460   2.7928460   2.7928460
 AtZNuc=   6.0000000   8.0000000   6.0000000   1.0000000   1.0000000   1.0000000   1.0000000   1.0000000   1.0000000   1.0000000

  Atom        31          32          33          34          35          36          37
 IAtWgt=           1           1           1           1           1           1           1
 AtmWgt=   1.0078250   1.0078250   1.0078250   1.0078250   1.0078250   1.0078250   1.0078250
 NucSpn=           1           1           1           1           1           1           1
 AtZEff=   1.0000000   1.0000000   1.0000000   1.0000000   1.0000000   1.0000000   1.0000000
 NQMom=    0.0000000   0.0000000   0.0000000   0.0000000   0.0000000   0.0000000   0.0000000
 NMagM=    2.7928460   2.7928460   2.7928460   2.7928460   2.7928460   2.7928460   2.7928460
 AtZNuc=   1.0000000   1.0000000   1.0000000   1.0000000   1.0000000   1.0000000   1.0000000
 Leave Link  101 at Sat Jun  1 12:49:31 2024, MaxMem=   104857600 cpu:               0.6 elap:               0.6
 (Enter /software/spackages_v0_21_prod/apps/linux-ubuntu22.04-zen2/gcc-13.2.0/gaussian_sse4-16-C-g6jkfwqig4o4stofyyxv7ma3rrfxhpfk/g16/l202.exe)
                          Input orientation:                          
 ---------------------------------------------------------------------
 Center     Atomic      Atomic             Coordinates (Angstroms)
 Number     Number       Type             X           Y           Z
 ---------------------------------------------------------------------
      1          6           0        4.596529    2.020133    1.663731
      2          8           0        4.416896    0.809403    0.952398
      3          6           0        3.139266    0.449564    0.632321
      4          6           0        2.004764    1.171661    0.946473
      5          6           0        0.738910    0.678923    0.548600
      6          6           0       -0.586101    1.151771    0.687150
      7          6           0       -1.443657    0.227931    0.089795
      8          6           0       -2.893928    0.288314    0.047064
      9          7           0       -3.595562   -0.778492   -0.320513
     10          6           0       -4.957915   -0.761484   -0.350461
     11          6           0       -5.750763    0.304557   -0.013415
     12          6           0       -5.071485    1.486627    0.381989
     13          7           0       -5.632328    2.648965    0.736237
     14         16           0       -4.390209    3.674035    1.075609
     15          7           0       -3.113714    2.677421    0.785825
     16          6           0       -3.620386    1.500053    0.414903
     17          7           0       -0.661854   -0.826742   -0.418966
     18          6           0       -1.049684   -1.967474   -1.238427
     19          6           0        0.657896   -0.548381   -0.152537
     20          6           0        1.804506   -1.290527   -0.486288
     21          6           0        3.037563   -0.790895   -0.091365
     22          8           0        4.229457   -1.397586   -0.337453
     23          6           0        4.219274   -2.624798   -1.045674
     24          1           0        5.672628    2.120295    1.817840
     25          1           0        4.089921    1.995454    2.638456
     26          1           0        4.228775    2.883482    1.092126
     27          1           0        2.072025    2.108510    1.487013
     28          1           0       -0.906371    2.057880    1.175611
     29          1           0       -5.411810   -1.697551   -0.669000
     30          1           0       -6.833126    0.263159   -0.047444
     31          1           0       -0.650215   -2.888479   -0.797996
     32          1           0       -0.647868   -1.861557   -2.254252
     33          1           0       -2.133269   -2.028071   -1.268105
     34          1           0        1.728916   -2.222538   -1.031368
     35          1           0        3.792504   -2.506432   -2.050856
     36          1           0        3.656523   -3.397571   -0.504706
     37          1           0        5.263912   -2.929543   -1.129497
 ---------------------------------------------------------------------
                    Distance matrix (angstroms):
                    1          2          3          4          5
     1  C    0.000000
     2  O    1.415673   0.000000
     3  C    2.377837   1.365383   0.000000
     4  C    2.819860   2.439190   1.381018   0.000000
     5  C    4.233626   3.702386   2.412743   1.415444   0.000000
     6  C    5.344850   5.021709   3.791367   2.603887   1.413660
     7  C    6.494083   5.952166   4.620243   3.676429   2.275411
     8  C    7.856193   7.385074   6.063659   5.058302   3.688038
     9  N    8.881435   8.266873   6.911868   6.063992   4.654789
    10  C   10.152919   9.594384   8.246020   7.341525   5.944484
    11  C   10.621793  10.225897   8.914630   7.862662   6.524712
    12  C    9.767190   9.529606   8.279771   7.105712   5.868631
    13  N   10.290053  10.218494   9.043729   7.781504   6.671502
    14  S    9.156568   9.262095   8.202848   6.868350   5.962910
    15  N    7.787849   7.760627   6.639779   5.337784   4.346605
    16  C    8.327530   8.084789   6.844246   5.659746   4.437971
    17  N    6.331897   5.509203   4.145200   3.601235   2.272741
    18  C    7.496883   6.511088   5.185468   4.894651   3.660048
    19  C    5.040726   4.146630   2.787309   2.445489   1.415779
    20  C    4.835126   3.647479   2.461867   2.855745   2.466825
    21  C    3.662324   2.356471   1.439724   2.448552   2.802450
    22  O    3.977472   2.563133   2.353921   3.633009   4.157030
    23  C    5.390601   3.978075   3.665213   4.825537   5.056601
    24  H    1.091682   2.011042   3.258023   3.887469   5.294346
    25  H    1.098795   2.087204   2.705198   2.808793   4.162935
    26  H    1.098794   2.087275   2.705994   2.810298   4.163492
    27  H    2.532225   2.733480   2.149791   1.083694   2.168302
    28  H    5.524636   5.472266   4.387371   3.051654   2.236429
    29  H   10.928388  10.272157   8.912039   8.114659   6.705336
    30  H   11.689829  11.307567   9.997271   8.939885   7.606829
    31  H    7.594925   6.512589   5.248667   5.155271   4.058244
    32  H    7.610638   6.562657   5.293011   5.146019   4.029041
    33  H    8.382947   7.475731   6.127799   5.680313   4.344841
    34  H    5.786797   4.511455   3.449214   3.938088   3.448896
    35  H    5.910533   4.517097   4.045253   5.070342   5.121337
    36  H    5.910773   4.516630   4.044853   5.070711   5.122472
    37  H    5.722483   4.362504   4.363083   5.634854   6.026001
                    6          7          8          9         10
     6  C    0.000000
     7  C    1.394889   0.000000
     8  C    2.545846   1.452156   0.000000
     9  N    3.714587   2.410795   1.328713   0.000000
    10  C    4.883640   3.677333   2.349498   1.362789   0.000000
    11  C    5.280369   4.309024   2.857521   2.431501   1.370640
    12  C    4.508206   3.851082   2.507964   2.793318   2.367148
    13  N    5.263877   4.881010   3.680552   4.124634   3.642377
    14  S    4.580824   4.640003   3.841857   4.733458   4.693591
    15  N    2.954009   3.045250   2.510360   3.660533   4.064270
    16  C    3.066318   2.542073   1.459917   2.394414   2.736661
    17  N    2.267983   1.407974   2.538245   2.935755   4.297102
    18  C    3.694922   2.595995   3.184698   2.955966   4.185351
    19  C    2.267845   2.253422   3.654498   4.262989   5.623337
    20  C    3.613417   3.631550   4.985227   5.426822   6.784444
    21  C    4.184613   4.599148   6.030460   6.637093   7.999729
    22  O    5.544244   5.916847   7.330261   7.849489   9.209375
    23  C    6.352699   6.441750   7.763887   8.062652   9.390210
    24  H    6.433365   7.563643   8.937432   9.943584  11.225623
    25  H    5.136592   6.343524   7.642237   8.690047   9.919559
    26  H    5.132822   6.342957   7.652448   8.753619   9.988099
    27  H    2.936114   4.224786   5.481538   6.612372   7.812377
    28  H    1.078054   2.194627   2.890565   4.185109   5.166500
    29  H    5.765869   4.475431   3.285747   2.065156   1.087983
    30  H    6.352525   5.391331   3.940412   3.411954   2.158270
    31  H    4.305042   3.336126   3.979999   3.654463   4.825005
    32  H    4.211390   3.239413   3.868177   3.687991   4.838500
    33  H    4.040810   2.721948   2.770183   2.144219   3.228767
    34  H    4.438307   4.162575   5.370110   5.562432   6.878373
    35  H    6.328611   6.283034   7.544551   7.782247   9.083282
    36  H    6.333790   6.285661   7.536485   7.712732   9.010066
    37  H    7.360706   7.513176   8.848122   9.152691  10.478222
                   11         12         13         14         15
    11  C    0.000000
    12  C    1.419526   0.000000
    13  N    2.464194   1.338307   0.000000
    14  S    3.793476   2.393742   1.645844   0.000000
    15  N    3.636385   2.326788   2.519263   1.645191   0.000000
    16  C    2.480155   1.451534   2.339052   2.399033   1.334353
    17  N    5.228891   5.043615   6.174192   6.032527   4.443231
    18  C    5.363107   5.543595   6.797899   6.952733   5.471093
    19  C    6.466666   6.103506   7.111952   6.694812   5.050877
    20  C    7.736278   7.466308   8.504156   8.090791   6.446067
    21  C    8.856680   8.436103   9.364004   8.744668   7.115960
    22  O   10.129516   9.764416  10.713645  10.100333   8.472874
    23  C   10.442620  10.259641  11.315557  10.876504   9.232585
    24  H   11.710861  10.858138  11.368878  10.209099   8.864268
    25  H   10.331051   9.448910   9.928123   8.784801   7.469248
    26  H   10.366497   9.431349   9.870310   8.655180   7.351764
    27  H    8.167101   7.255174   7.759691   6.661875   5.263764
    28  H    5.287349   4.278357   4.783001   3.841755   2.325538
    29  H    2.133803   3.370369   4.573349   5.739448   5.151518
    30  H    1.083689   2.187388   2.783549   4.343176   4.511876
    31  H    6.068496   6.330999   7.605170   7.782322   6.289400
    32  H    5.979376   6.142353   7.357491   7.465646   5.993729
    33  H    4.483488   4.869192   6.175392   6.565119   5.227003
    34  H    7.960405   7.874068   9.002438   8.755148   7.124806
    35  H   10.155135  10.021655  11.098354  10.720529   9.089276
    36  H   10.121470  10.040904  11.152726  10.828430   9.187334
    37  H   11.533782  11.340529  12.382600  11.902596  10.261146
                   16         17         18         19         20
    16  C    0.000000
    17  N    3.855156   0.000000
    18  C    4.622310   1.457119   0.000000
    19  C    4.777214   1.374850   2.471602   0.000000
    20  C    6.166761   2.510490   3.028263   1.406018   0.000000
    21  C    7.059252   3.714067   4.405188   2.392774   1.387813
    22  O    8.401333   4.925183   5.385709   3.675784   2.431872
    23  C    8.978193   5.239387   5.313299   4.218129   2.815012
    24  H    9.418760   7.335802   8.440385   6.012632   5.648458
    25  H    8.039804   6.316010   7.559799   5.102894   5.077875
    26  H    7.998865   6.321979   7.538262   5.106667   5.078467
    27  H    5.824361   4.441008   5.812636   3.427382   3.939408
    28  H    2.873278   3.305074   4.695912   3.317153   4.617640
    29  H    3.822134   4.835587   4.407408   6.199086   7.230095
    30  H    3.473524   6.277779   6.312080   7.535586   8.787219
    31  H    5.436198   2.096320   1.096269   2.757505   2.945550
    32  H    5.221175   2.106967   1.097532   2.801189   3.076672
    33  H    4.182307   2.080694   1.085683   3.350310   4.081823
    34  H    6.675659   2.835324   2.797955   2.173069   1.082345
    35  H    8.779683   5.032468   4.939363   4.154918   2.806855
    36  H    8.819626   5.026420   4.973119   4.151346   2.805341
    37  H   10.046753   6.327822   6.387405   5.276340   3.881698
                   21         22         23         24         25
    21  C    0.000000
    22  O    1.359869   0.000000
    23  C    2.381249   1.416944   0.000000
    24  H    4.366195   4.370757   5.729560   0.000000
    25  H    4.040188   4.515332   5.910691   1.787165   0.000000
    26  H    4.039886   4.513451   5.908589   1.787128   1.788578
    27  H    3.439490   4.502877   5.781815   3.615789   2.326049
    28  H    5.027461   6.372310   7.289294   6.610566   5.206414
    29  H    8.517488   9.651628   9.682946  11.984368  10.717296
    30  H    9.926906  11.190305  11.467009  12.779754  11.381031
    31  H    4.301034   5.123091   4.882908   8.479903   7.624361
    32  H    4.405315   5.260958   5.072698   8.507981   7.826989
    33  H    5.445441   6.461262   6.384384   9.362907   8.377235
    34  H    2.155404   2.723007   2.522677   6.521583   6.069053
    35  H    2.711569   2.087155   1.098423   6.317300   6.507310
    36  H    2.710853   2.087143   1.098414   6.317099   6.257157
    37  H    3.257018   2.011050   1.091405   5.861289   6.311206
                   26         27         28         29         30
    26  H    0.000000
    27  H    2.325530   0.000000
    28  H    5.201761   2.995059   0.000000
    29  H   10.817962   8.668464   6.148563   0.000000
    30  H   11.424989   9.222884   6.312156   2.500170   0.000000
    31  H    7.790548   6.132026   5.331717   4.909963   6.980296
    32  H    7.582565   6.095598   5.214669   5.023452   6.902307
    33  H    8.376733   6.510489   4.916505   3.349179   5.369209
    34  H    6.068769   5.021747   5.489761   7.169163   8.969691
    35  H    6.254586   6.064178   7.302223   9.342548  11.161913
    36  H    6.506072   6.065847   7.307901   9.227770  11.119477
    37  H    6.308596   6.512776   8.261980  10.756436  12.557966
                   31         32         33         34         35
    31  H    0.000000
    32  H    1.781925   0.000000
    33  H    1.777851   1.790707   0.000000
    34  H    2.481573   2.697194   3.874317   0.000000
    35  H    4.631778   4.491563   5.996358   2.319126   0.000000
    36  H    4.346629   4.893673   5.998333   2.318134   1.789748
    37  H    5.923553   6.111858   7.453198   3.606339   1.786888
                   36         37
    36  H    0.000000
    37  H    1.786928   0.000000
 Symmetry turned off by external request.
 Stoichiometry    C16H14N4O2S(1-,2)
 Framework group  C1[X(C16H14N4O2S)]
 Deg. of freedom   105
 Full point group                 C1      NOp   1
 Rotational constants (GHZ):           0.5325295           0.1156988           0.0956216
 Leave Link  202 at Sat Jun  1 12:49:31 2024, MaxMem=   104857600 cpu:               0.2 elap:               0.1
 (Enter /software/spackages_v0_21_prod/apps/linux-ubuntu22.04-zen2/gcc-13.2.0/gaussian_sse4-16-C-g6jkfwqig4o4stofyyxv7ma3rrfxhpfk/g16/l301.exe)
 Standard basis: 6-31G(d) (6D, 7F)
 Ernie: Thresh=  0.10000D-02 Tol=  0.10000D-05 Strict=F.
   377 basis functions,   724 primitive gaussians,   377 cartesian basis functions
    86 alpha electrons       85 beta electrons
       nuclear repulsion energy      1940.6079876229 Hartrees.
 IExCor=  402 DFT=T Ex+Corr=B3LYP ExCW=0 ScaHFX=  0.200000
 ScaDFX=  0.800000  0.720000  1.000000  0.810000 ScalE2=  1.000000  1.000000
 IRadAn=      5 IRanWt=     -1 IRanGd=            0 ICorTp=0 IEmpDi=  4
 NAtoms=   37 NActive=   37 NUniq=   37 SFac= 1.00D+00 NAtFMM=   60 NAOKFM=F Big=F
 Integral buffers will be    131072 words long.
 Raffenetti 2 integral format.
 Two-electron integral symmetry is turned off.
 Leave Link  301 at Sat Jun  1 12:49:31 2024, MaxMem=   104857600 cpu:               0.2 elap:               0.1
 (Enter /software/spackages_v0_21_prod/apps/linux-ubuntu22.04-zen2/gcc-13.2.0/gaussian_sse4-16-C-g6jkfwqig4o4stofyyxv7ma3rrfxhpfk/g16/l302.exe)
 NPDir=0 NMtPBC=     1 NCelOv=     1 NCel=       1 NClECP=     1 NCelD=      1
         NCelK=      1 NCelE2=     1 NClLst=     1 CellRange=     0.0.
 One-electron integrals computed using PRISM.
 NBasis=   377 RedAO= T EigKep=  3.09D-04  NBF=   377
 NBsUse=   377 1.00D-06 EigRej= -1.00D+00 NBFU=   377
 Precomputing XC quadrature grid using
 IXCGrd= 4 IRadAn=           5 IRanWt=          -1 IRanGd=           0 AccXCQ= 0.00D+00.
 Generated NRdTot=       0 NPtTot=           0 NUsed=           0 NTot=          32
 NSgBfM=   372   372   372   372   372 MxSgAt=    37 MxSgA2=    37.
 Leave Link  302 at Sat Jun  1 12:49:33 2024, MaxMem=   104857600 cpu:               3.8 elap:               2.1
 (Enter /software/spackages_v0_21_prod/apps/linux-ubuntu22.04-zen2/gcc-13.2.0/gaussian_sse4-16-C-g6jkfwqig4o4stofyyxv7ma3rrfxhpfk/g16/l303.exe)
 DipDrv:  MaxL=1.
 Leave Link  303 at Sat Jun  1 12:49:34 2024, MaxMem=   104857600 cpu:               0.3 elap:               0.2
 (Enter /software/spackages_v0_21_prod/apps/linux-ubuntu22.04-zen2/gcc-13.2.0/gaussian_sse4-16-C-g6jkfwqig4o4stofyyxv7ma3rrfxhpfk/g16/l401.exe)
 ExpMin= 1.17D-01 ExpMax= 2.19D+04 ExpMxC= 3.30D+03 IAcc=3 IRadAn=         5 AccDes= 0.00D+00
 Harris functional with IExCor=  402 and IRadAn=       5 diagonalized for initial guess.
 HarFok:  IExCor=  402 AccDes= 0.00D+00 IRadAn=         5 IDoV= 1 UseB2=F ITyADJ=14
 ICtDFT=  3500011 ScaDFX=  1.000000  1.000000  1.000000  1.000000
 FoFCou: FMM=F IPFlag=           0 FMFlag=      100000 FMFlg1=           0
         NFxFlg=           0 DoJE=T BraDBF=F KetDBF=T FulRan=T
         wScrn=  0.000000 ICntrl=       500 IOpCl=  0 I1Cent=   200000004 NGrid=           0
         NMat0=    1 NMatS0=      1 NMatT0=    0 NMatD0=    1 NMtDS0=    0 NMtDT0=    0
 Symmetry not used in FoFCou.
 Harris En= -1385.81833849633    
 JPrj=0 DoOrth=F DoCkMO=F.
 Initial guess <Sx>= 0.0000 <Sy>= 0.0000 <Sz>= 0.5000 <S**2>= 0.7500 S= 0.5000
 Leave Link  401 at Sat Jun  1 12:49:43 2024, MaxMem=   104857600 cpu:              17.6 elap:               9.2
 (Enter /software/spackages_v0_21_prod/apps/linux-ubuntu22.04-zen2/gcc-13.2.0/gaussian_sse4-16-C-g6jkfwqig4o4stofyyxv7ma3rrfxhpfk/g16/l502.exe)
 Two-electron integral symmetry not used.
 UHF open shell SCF:
 Using DIIS extrapolation, IDIIS=  1040.
 NGot=   104857600 LenX=   104567031 LenY=   104424461
 Requested convergence on RMS density matrix=1.00D-08 within 128 cycles.
 Requested convergence on MAX density matrix=1.00D-06.
 Requested convergence on             energy=1.00D-06.
 No special actions if energy rises.
 Fock matrices will be formed incrementally for  20 cycles.
 Integral accuracy reduced to 1.0D-05 until final iterations.

 Cycle   1  Pass 0  IDiag  1:
 FoFJK:  IHMeth= 1 ICntrl=       0 DoSepK=F KAlg= 0 I1Cent=           0 FoldK=F
 IRaf= 710000000 NMat=       1 IRICut=       1 DoRegI=T DoRafI=F ISym2E= 0 IDoP0=0 IntGTp=1.
 FoFCou: FMM=F IPFlag=           0 FMFlag=      100000 FMFlg1=           0
         NFxFlg=           0 DoJE=F BraDBF=F KetDBF=F FulRan=T
         wScrn=  0.000000 ICntrl=         0 IOpCl=  1 I1Cent=           0 NGrid=           0
         NMat0=    1 NMatS0=      1 NMatT0=    0 NMatD0=    1 NMtDS0=    0 NMtDT0=    0
 Symmetry not used in FoFCou.
 E= -1385.14387538845    
 DIIS: error= 3.44D-02 at cycle   1 NSaved=   1.
 NSaved= 1 IEnMin= 1 EnMin= -1385.14387538845     IErMin= 1 ErrMin= 3.44D-02
 ErrMax= 3.44D-02  0.00D+00 EMaxC= 1.00D-01 BMatC= 2.29D+00 BMatP= 2.29D+00
 IDIUse=3 WtCom= 6.56D-01 WtEn= 3.44D-01
 Coeff-Com:  0.100D+01
 Coeff-En:   0.100D+01
 Coeff:      0.100D+01
 Gap=     0.074 Goal=   None    Shift=    0.000
 Gap=     0.100 Goal=   None    Shift=    0.000
 GapD=    0.074 DampG=0.500 DampE=0.500 DampFc=0.2500 IDamp=-1.
 Damping current iteration by 2.50D-01
 RMSDP=1.01D-02 MaxDP=1.15D+00              OVMax= 6.94D-01

 Cycle   2  Pass 0  IDiag  1:
 RMSU=  2.51D-03    CP:  9.88D-01
 E= -1385.29666657482     Delta-E=       -0.152791186372 Rises=F Damp=T
 DIIS: error= 1.81D-02 at cycle   2 NSaved=   2.
 NSaved= 2 IEnMin= 2 EnMin= -1385.29666657482     IErMin= 2 ErrMin= 1.81D-02
 ErrMax= 1.81D-02  0.00D+00 EMaxC= 1.00D-01 BMatC= 5.19D-01 BMatP= 2.29D+00
 IDIUse=3 WtCom= 8.19D-01 WtEn= 1.81D-01
 Coeff-Com: -0.449D+00 0.145D+01
 Coeff-En:   0.143D+00 0.857D+00
 Coeff:     -0.342D+00 0.134D+01
 Gap=     0.084 Goal=   None    Shift=    0.000
 Gap=    -0.112 Goal=   None    Shift=    0.000
 RMSDP=3.45D-03 MaxDP=2.81D-01 DE=-1.53D-01 OVMax= 8.72D-01

 Cycle   3  Pass 0  IDiag  1:
 RMSU=  3.06D-03    CP:  9.63D-01  3.95D-01
 E= -1385.43299886257     Delta-E=       -0.136332287747 Rises=F Damp=F
 DIIS: error= 2.97D-02 at cycle   3 NSaved=   3.
 NSaved= 3 IEnMin= 3 EnMin= -1385.43299886257     IErMin= 2 ErrMin= 1.81D-02
 ErrMax= 2.97D-02  0.00D+00 EMaxC= 1.00D-01 BMatC= 9.98D-01 BMatP= 5.19D-01
 IDIUse=2 WtCom= 0.00D+00 WtEn= 1.00D+00
 Coeff-En:   0.000D+00 0.323D+00 0.677D+00
 Coeff:      0.000D+00 0.323D+00 0.677D+00
 Gap=     0.069 Goal=   None    Shift=    0.000
 Gap=     0.378 Goal=   None    Shift=    0.000
 RMSDP=5.83D-03 MaxDP=3.67D-01 DE=-1.36D-01 OVMax= 6.08D-01

 Cycle   4  Pass 0  IDiag  1:
 RMSU=  4.21D-03    CP:  9.62D-01  1.52D+00  5.18D-02
 E= -1384.36774086773     Delta-E=        1.065257994844 Rises=F Damp=F
 DIIS: error= 6.67D-02 at cycle   4 NSaved=   4.
 NSaved= 4 IEnMin= 3 EnMin= -1385.43299886257     IErMin= 2 ErrMin= 1.81D-02
 ErrMax= 6.67D-02  0.00D+00 EMaxC= 1.00D-01 BMatC= 4.78D+00 BMatP= 5.19D-01
 IDIUse=2 WtCom= 0.00D+00 WtEn= 1.00D+00
 Coeff-En:   0.000D+00 0.000D+00 0.742D+00 0.258D+00
 Coeff:      0.000D+00 0.000D+00 0.742D+00 0.258D+00
 Gap=     0.053 Goal=   None    Shift=    0.000
 Gap=     0.082 Goal=   None    Shift=    0.000
 RMSDP=3.99D-03 MaxDP=2.56D-01 DE= 1.07D+00 OVMax= 5.32D-01

 Cycle   5  Pass 0  IDiag  1:
 RMSU=  1.75D-03    CP:  9.68D-01  6.09D-01  3.83D-01  3.86D-01
 E= -1385.67555453162     Delta-E=       -1.307813663891 Rises=F Damp=F
 DIIS: error= 1.16D-02 at cycle   5 NSaved=   5.
 NSaved= 5 IEnMin= 5 EnMin= -1385.67555453162     IErMin= 5 ErrMin= 1.16D-02
 ErrMax= 1.16D-02  0.00D+00 EMaxC= 1.00D-01 BMatC= 3.41D-01 BMatP= 5.19D-01
 IDIUse=3 WtCom= 8.84D-01 WtEn= 1.16D-01
 Coeff-Com: -0.175D+00 0.401D+00 0.357D+00 0.145D-01 0.403D+00
 Coeff-En:   0.000D+00 0.000D+00 0.259D+00 0.000D+00 0.741D+00
 Coeff:     -0.154D+00 0.354D+00 0.345D+00 0.129D-01 0.442D+00
 Gap=     0.070 Goal=   None    Shift=    0.000
 Gap=     0.121 Goal=   None    Shift=    0.000
 RMSDP=1.30D-03 MaxDP=9.83D-02 DE=-1.31D+00 OVMax= 2.10D-01

 Cycle   6  Pass 0  IDiag  1:
 RMSU=  7.34D-04    CP:  9.66D-01  5.18D-01  5.88D-01  2.36D-01  6.77D-01
 E= -1385.75402909647     Delta-E=       -0.078474564856 Rises=F Damp=F
 DIIS: error= 4.53D-03 at cycle   6 NSaved=   6.
 NSaved= 6 IEnMin= 6 EnMin= -1385.75402909647     IErMin= 6 ErrMin= 4.53D-03
 ErrMax= 4.53D-03  0.00D+00 EMaxC= 1.00D-01 BMatC= 5.61D-02 BMatP= 3.41D-01
 IDIUse=3 WtCom= 9.55D-01 WtEn= 4.53D-02
 Coeff-Com: -0.105D+00 0.174D+00 0.152D+00-0.252D-01 0.332D+00 0.472D+00
 Coeff-En:   0.000D+00 0.000D+00 0.000D+00 0.000D+00 0.970D-01 0.903D+00
 Coeff:     -0.100D+00 0.166D+00 0.145D+00-0.241D-01 0.322D+00 0.492D+00
 Gap=     0.080 Goal=   None    Shift=    0.000
 Gap=     0.121 Goal=   None    Shift=    0.000
 RMSDP=4.50D-04 MaxDP=2.46D-02 DE=-7.85D-02 OVMax= 5.44D-02

 Cycle   7  Pass 0  IDiag  1:
 RMSU=  2.37D-04    CP:  9.66D-01  5.40D-01  5.69D-01  2.45D-01  7.93D-01
                    CP:  5.76D-01
 E= -1385.76814304112     Delta-E=       -0.014113944643 Rises=F Damp=F
 DIIS: error= 1.11D-03 at cycle   7 NSaved=   7.
 NSaved= 7 IEnMin= 7 EnMin= -1385.76814304112     IErMin= 7 ErrMin= 1.11D-03
 ErrMax= 1.11D-03  0.00D+00 EMaxC= 1.00D-01 BMatC= 2.26D-03 BMatP= 5.61D-02
 IDIUse=3 WtCom= 9.89D-01 WtEn= 1.11D-02
 Coeff-Com: -0.220D-01 0.300D-01 0.127D-01-0.524D-02 0.670D-01 0.198D+00
 Coeff-Com:  0.720D+00
 Coeff-En:   0.000D+00 0.000D+00 0.000D+00 0.000D+00 0.000D+00 0.000D+00
 Coeff-En:   0.100D+01
 Coeff:     -0.217D-01 0.297D-01 0.125D-01-0.518D-02 0.662D-01 0.196D+00
 Coeff:      0.723D+00
 Gap=     0.085 Goal=   None    Shift=    0.000
 Gap=     0.125 Goal=   None    Shift=    0.000
 RMSDP=1.22D-04 MaxDP=5.72D-03 DE=-1.41D-02 OVMax= 2.67D-02

 Cycle   8  Pass 0  IDiag  1:
 RMSU=  1.07D-04    CP:  9.66D-01  5.45D-01  5.66D-01  2.52D-01  8.07D-01
                    CP:  6.34D-01  9.71D-01
 E= -1385.76881672612     Delta-E=       -0.000673685002 Rises=F Damp=F
 DIIS: error= 4.48D-04 at cycle   8 NSaved=   8.
 NSaved= 8 IEnMin= 8 EnMin= -1385.76881672612     IErMin= 8 ErrMin= 4.48D-04
 ErrMax= 4.48D-04  0.00D+00 EMaxC= 1.00D-01 BMatC= 5.97D-04 BMatP= 2.26D-03
 IDIUse=3 WtCom= 9.96D-01 WtEn= 4.48D-03
 Coeff-Com: -0.462D-02 0.668D-02-0.655D-02 0.239D-03-0.148D-02 0.529D-01
 Coeff-Com:  0.412D+00 0.541D+00
 Coeff-En:   0.000D+00 0.000D+00 0.000D+00 0.000D+00 0.000D+00 0.000D+00
 Coeff-En:   0.000D+00 0.100D+01
 Coeff:     -0.460D-02 0.665D-02-0.652D-02 0.238D-03-0.147D-02 0.527D-01
 Coeff:      0.410D+00 0.543D+00
 Gap=     0.085 Goal=   None    Shift=    0.000
 Gap=     0.126 Goal=   None    Shift=    0.000
 RMSDP=5.55D-05 MaxDP=3.99D-03 DE=-6.74D-04 OVMax= 9.35D-03

 Cycle   9  Pass 0  IDiag  1:
 RMSU=  5.12D-05    CP:  9.66D-01  5.44D-01  5.65D-01  2.52D-01  8.11D-01
                    CP:  6.32D-01  1.05D+00  9.52D-01
 E= -1385.76900918852     Delta-E=       -0.000192462403 Rises=F Damp=F
 DIIS: error= 2.28D-04 at cycle   9 NSaved=   9.
 NSaved= 9 IEnMin= 9 EnMin= -1385.76900918852     IErMin= 9 ErrMin= 2.28D-04
 ErrMax= 2.28D-04  0.00D+00 EMaxC= 1.00D-01 BMatC= 1.19D-04 BMatP= 5.97D-04
 IDIUse=3 WtCom= 9.98D-01 WtEn= 2.28D-03
 Coeff-Com:  0.716D-03 0.365D-03-0.301D-02 0.715D-03-0.157D-01-0.252D-01
 Coeff-Com:  0.144D-02 0.279D+00 0.762D+00
 Coeff-En:   0.000D+00 0.000D+00 0.000D+00 0.000D+00 0.000D+00 0.000D+00
 Coeff-En:   0.000D+00 0.000D+00 0.100D+01
 Coeff:      0.715D-03 0.364D-03-0.301D-02 0.713D-03-0.156D-01-0.251D-01
 Coeff:      0.143D-02 0.278D+00 0.763D+00
 Gap=     0.086 Goal=   None    Shift=    0.000
 Gap=     0.127 Goal=   None    Shift=    0.000
 RMSDP=4.10D-05 MaxDP=3.15D-03 DE=-1.92D-04 OVMax= 9.38D-03

 Cycle  10  Pass 0  IDiag  1:
 RMSU=  2.66D-05    CP:  9.66D-01  5.45D-01  5.65D-01  2.53D-01  8.16D-01
                    CP:  6.36D-01  1.10D+00  1.20D+00  1.10D+00
 E= -1385.76906331121     Delta-E=       -0.000054122691 Rises=F Damp=F
 DIIS: error= 1.35D-04 at cycle  10 NSaved=  10.
 NSaved=10 IEnMin=10 EnMin= -1385.76906331121     IErMin=10 ErrMin= 1.35D-04
 ErrMax= 1.35D-04  0.00D+00 EMaxC= 1.00D-01 BMatC= 7.63D-05 BMatP= 1.19D-04
 IDIUse=3 WtCom= 9.99D-01 WtEn= 1.35D-03
 Coeff-Com:  0.194D-02-0.165D-02 0.217D-02 0.250D-03-0.101D-01-0.416D-01
 Coeff-Com: -0.167D+00 0.148D-01 0.607D+00 0.594D+00
 Coeff-En:   0.000D+00 0.000D+00 0.000D+00 0.000D+00 0.000D+00 0.000D+00
 Coeff-En:   0.000D+00 0.000D+00 0.000D+00 0.100D+01
 Coeff:      0.194D-02-0.165D-02 0.216D-02 0.249D-03-0.101D-01-0.415D-01
 Coeff:     -0.166D+00 0.147D-01 0.606D+00 0.594D+00
 Gap=     0.086 Goal=   None    Shift=    0.000
 Gap=     0.127 Goal=   None    Shift=    0.000
 RMSDP=2.65D-05 MaxDP=2.10D-03 DE=-5.41D-05 OVMax= 5.97D-03

 Cycle  11  Pass 0  IDiag  1:
 RMSU=  1.36D-05    CP:  9.66D-01  5.46D-01  5.65D-01  2.54D-01  8.18D-01
                    CP:  6.36D-01  1.13D+00  1.34D+00  1.37D+00  7.86D-01
 E= -1385.76909031203     Delta-E=       -0.000027000821 Rises=F Damp=F
 DIIS: error= 9.42D-05 at cycle  11 NSaved=  11.
 NSaved=11 IEnMin=11 EnMin= -1385.76909031203     IErMin=11 ErrMin= 9.42D-05
 ErrMax= 9.42D-05  0.00D+00 EMaxC= 1.00D-01 BMatC= 1.46D-05 BMatP= 7.63D-05
 IDIUse=1 WtCom= 1.00D+00 WtEn= 0.00D+00
 Coeff-Com:  0.156D-02-0.167D-02 0.227D-02 0.124D-04-0.422D-02-0.236D-01
 Coeff-Com: -0.105D+00-0.357D-01 0.243D+00 0.369D+00 0.554D+00
 Coeff:      0.156D-02-0.167D-02 0.227D-02 0.124D-04-0.422D-02-0.236D-01
 Coeff:     -0.105D+00-0.357D-01 0.243D+00 0.369D+00 0.554D+00
 Gap=     0.086 Goal=   None    Shift=    0.000
 Gap=     0.128 Goal=   None    Shift=    0.000
 RMSDP=1.03D-05 MaxDP=8.96D-04 DE=-2.70D-05 OVMax= 1.99D-03

 Cycle  12  Pass 0  IDiag  1:
 RMSU=  6.29D-06    CP:  9.66D-01  5.46D-01  5.65D-01  2.54D-01  8.19D-01
                    CP:  6.35D-01  1.14D+00  1.38D+00  1.45D+00  9.24D-01
                    CP:  7.61D-01
 E= -1385.76909445827     Delta-E=       -0.000004146239 Rises=F Damp=F
 DIIS: error= 5.24D-05 at cycle  12 NSaved=  12.
 NSaved=12 IEnMin=12 EnMin= -1385.76909445827     IErMin=12 ErrMin= 5.24D-05
 ErrMax= 5.24D-05  0.00D+00 EMaxC= 1.00D-01 BMatC= 3.77D-06 BMatP= 1.46D-05
 IDIUse=1 WtCom= 1.00D+00 WtEn= 0.00D+00
 Coeff-Com:  0.982D-03-0.132D-02 0.115D-02-0.716D-05-0.862D-03-0.680D-02
 Coeff-Com: -0.299D-01-0.229D-01 0.183D-01 0.872D-01 0.356D+00 0.598D+00
 Coeff:      0.982D-03-0.132D-02 0.115D-02-0.716D-05-0.862D-03-0.680D-02
 Coeff:     -0.299D-01-0.229D-01 0.183D-01 0.872D-01 0.356D+00 0.598D+00
 Gap=     0.086 Goal=   None    Shift=    0.000
 Gap=     0.128 Goal=   None    Shift=    0.000
 RMSDP=4.68D-06 MaxDP=2.95D-04 DE=-4.15D-06 OVMax= 5.68D-04

 Initial convergence to 1.0D-05 achieved.  Increase integral accuracy.
 Cycle  13  Pass 1  IDiag  1:
 E= -1385.76906609410     Delta-E=        0.000028364168 Rises=F Damp=F
 DIIS: error= 1.19D-04 at cycle   1 NSaved=   1.
 NSaved= 1 IEnMin= 1 EnMin= -1385.76906609410     IErMin= 1 ErrMin= 1.19D-04
 ErrMax= 1.19D-04  0.00D+00 EMaxC= 1.00D-01 BMatC= 4.58D-06 BMatP= 4.58D-06
 IDIUse=3 WtCom= 9.99D-01 WtEn= 1.19D-03
 Coeff-Com:  0.100D+01
 Coeff-En:   0.100D+01
 Coeff:      0.100D+01
 Gap=     0.086 Goal=   None    Shift=    0.000
 Gap=     0.128 Goal=   None    Shift=    0.000
 RMSDP=4.68D-06 MaxDP=2.95D-04 DE= 2.84D-05 OVMax= 5.26D-04

 Cycle  14  Pass 1  IDiag  1:
 RMSU=  5.91D-05    CP:  1.00D+00
 E= -1385.76906630696     Delta-E=       -0.000000212857 Rises=F Damp=F
 DIIS: error= 3.22D-05 at cycle   2 NSaved=   2.
 NSaved= 2 IEnMin= 2 EnMin= -1385.76906630696     IErMin= 2 ErrMin= 3.22D-05
 ErrMax= 3.22D-05  0.00D+00 EMaxC= 1.00D-01 BMatC= 3.10D-06 BMatP= 4.58D-06
 IDIUse=1 WtCom= 1.00D+00 WtEn= 0.00D+00
 Coeff-Com:  0.427D+00 0.573D+00
 Coeff:      0.427D+00 0.573D+00
 Gap=     0.086 Goal=   None    Shift=    0.000
 Gap=     0.128 Goal=   None    Shift=    0.000
 RMSDP=5.87D-06 MaxDP=3.57D-04 DE=-2.13D-07 OVMax= 9.40D-04

 Cycle  15  Pass 1  IDiag  1:
 RMSU=  5.86D-06    CP:  1.00D+00  1.00D+00
 E= -1385.76906630253     Delta-E=        0.000000004432 Rises=F Damp=F
 DIIS: error= 3.54D-05 at cycle   3 NSaved=   3.
 NSaved= 3 IEnMin= 2 EnMin= -1385.76906630696     IErMin= 2 ErrMin= 3.22D-05
 ErrMax= 3.54D-05  0.00D+00 EMaxC= 1.00D-01 BMatC= 3.18D-06 BMatP= 3.10D-06
 IDIUse=1 WtCom= 1.00D+00 WtEn= 0.00D+00
 Coeff-Com:  0.119D-01 0.500D+00 0.488D+00
 Coeff:      0.119D-01 0.500D+00 0.488D+00
 Gap=     0.086 Goal=   None    Shift=    0.000
 Gap=     0.128 Goal=   None    Shift=    0.000
 RMSDP=3.07D-06 MaxDP=1.85D-04 DE= 4.43D-09 OVMax= 4.31D-04

 Cycle  16  Pass 1  IDiag  1:
 RMSU=  9.55D-07    CP:  1.00D+00  1.01D+00  5.08D-01
 E= -1385.76906712903     Delta-E=       -0.000000826501 Rises=F Damp=F
 DIIS: error= 6.96D-06 at cycle   4 NSaved=   4.
 NSaved= 4 IEnMin= 4 EnMin= -1385.76906712903     IErMin= 4 ErrMin= 6.96D-06
 ErrMax= 6.96D-06  0.00D+00 EMaxC= 1.00D-01 BMatC= 1.36D-07 BMatP= 3.10D-06
 IDIUse=1 WtCom= 1.00D+00 WtEn= 0.00D+00
 Coeff-Com: -0.570D-02 0.321D+00 0.328D+00 0.357D+00
 Coeff:     -0.570D-02 0.321D+00 0.328D+00 0.357D+00
 Gap=     0.086 Goal=   None    Shift=    0.000
 Gap=     0.128 Goal=   None    Shift=    0.000
 RMSDP=6.14D-07 MaxDP=3.31D-05 DE=-8.27D-07 OVMax= 8.20D-05

 Cycle  17  Pass 1  IDiag  1:
 RMSU=  3.80D-07    CP:  1.00D+00  1.01D+00  5.24D-01  5.06D-01
 E= -1385.76906716359     Delta-E=       -0.000000034564 Rises=F Damp=F
 DIIS: error= 1.39D-06 at cycle   5 NSaved=   5.
 NSaved= 5 IEnMin= 5 EnMin= -1385.76906716359     IErMin= 5 ErrMin= 1.39D-06
 ErrMax= 1.39D-06  0.00D+00 EMaxC= 1.00D-01 BMatC= 4.03D-09 BMatP= 1.36D-07
 IDIUse=1 WtCom= 1.00D+00 WtEn= 0.00D+00
 Coeff-Com: -0.327D-02 0.742D-01 0.738D-01 0.131D+00 0.724D+00
 Coeff:     -0.327D-02 0.742D-01 0.738D-01 0.131D+00 0.724D+00
 Gap=     0.086 Goal=   None    Shift=    0.000
 Gap=     0.128 Goal=   None    Shift=    0.000
 RMSDP=1.98D-07 MaxDP=1.30D-05 DE=-3.46D-08 OVMax= 3.02D-05

 Cycle  18  Pass 1  IDiag  1:
 RMSU=  1.62D-07    CP:  1.00D+00  1.01D+00  5.28D-01  6.00D-01  1.17D+00
 E= -1385.76906716595     Delta-E=       -0.000000002353 Rises=F Damp=F
 DIIS: error= 7.98D-07 at cycle   6 NSaved=   6.
 NSaved= 6 IEnMin= 6 EnMin= -1385.76906716595     IErMin= 6 ErrMin= 7.98D-07
 ErrMax= 7.98D-07  0.00D+00 EMaxC= 1.00D-01 BMatC= 2.58D-09 BMatP= 4.03D-09
 IDIUse=1 WtCom= 1.00D+00 WtEn= 0.00D+00
 Coeff-Com:  0.685D-03-0.123D+00-0.130D+00-0.103D+00 0.538D+00 0.816D+00
 Coeff:      0.685D-03-0.123D+00-0.130D+00-0.103D+00 0.538D+00 0.816D+00
 Gap=     0.086 Goal=   None    Shift=    0.000
 Gap=     0.128 Goal=   None    Shift=    0.000
 RMSDP=2.22D-07 MaxDP=1.63D-05 DE=-2.35D-09 OVMax= 3.89D-05

 Cycle  19  Pass 1  IDiag  1:
 RMSU=  1.13D-07    CP:  1.00D+00  1.01D+00  5.30D-01  6.77D-01  1.63D+00
                    CP:  1.14D+00
 E= -1385.76906716779     Delta-E=       -0.000000001845 Rises=F Damp=F
 DIIS: error= 6.76D-07 at cycle   7 NSaved=   7.
 NSaved= 7 IEnMin= 7 EnMin= -1385.76906716779     IErMin= 7 ErrMin= 6.76D-07
 ErrMax= 6.76D-07  0.00D+00 EMaxC= 1.00D-01 BMatC= 9.99D-10 BMatP= 2.58D-09
 IDIUse=1 WtCom= 1.00D+00 WtEn= 0.00D+00
 Coeff-Com:  0.138D-02-0.108D+00-0.114D+00-0.111D+00 0.194D+00 0.573D+00
 Coeff-Com:  0.565D+00
 Coeff:      0.138D-02-0.108D+00-0.114D+00-0.111D+00 0.194D+00 0.573D+00
 Coeff:      0.565D+00
 Gap=     0.086 Goal=   None    Shift=    0.000
 Gap=     0.128 Goal=   None    Shift=    0.000
 RMSDP=1.14D-07 MaxDP=7.73D-06 DE=-1.84D-09 OVMax= 2.56D-05

 Cycle  20  Pass 1  IDiag  1:
 RMSU=  6.30D-08    CP:  1.00D+00  1.01D+00  5.34D-01  7.09D-01  1.81D+00
                    CP:  1.48D+00  8.92D-01
 E= -1385.76906716829     Delta-E=       -0.000000000503 Rises=F Damp=F
 DIIS: error= 2.58D-07 at cycle   8 NSaved=   8.
 NSaved= 8 IEnMin= 8 EnMin= -1385.76906716829     IErMin= 8 ErrMin= 2.58D-07
 ErrMax= 2.58D-07  0.00D+00 EMaxC= 1.00D-01 BMatC= 2.36D-10 BMatP= 9.99D-10
 IDIUse=1 WtCom= 1.00D+00 WtEn= 0.00D+00
 Coeff-Com:  0.744D-03-0.440D-01-0.461D-01-0.501D-01 0.784D-02 0.177D+00
 Coeff-Com:  0.379D+00 0.575D+00
 Coeff:      0.744D-03-0.440D-01-0.461D-01-0.501D-01 0.784D-02 0.177D+00
 Coeff:      0.379D+00 0.575D+00
 Gap=     0.086 Goal=   None    Shift=    0.000
 Gap=     0.128 Goal=   None    Shift=    0.000
 RMSDP=4.83D-08 MaxDP=2.31D-06 DE=-5.03D-10 OVMax= 6.07D-06

 Cycle  21  Pass 1  IDiag  1:
 RMSU=  2.95D-08    CP:  1.00D+00  1.01D+00  5.34D-01  7.25D-01  1.87D+00
                    CP:  1.52D+00  1.09D+00  9.40D-01
 E= -1385.76906716838     Delta-E=       -0.000000000081 Rises=F Damp=F
 DIIS: error= 9.56D-08 at cycle   9 NSaved=   9.
 NSaved= 9 IEnMin= 9 EnMin= -1385.76906716838     IErMin= 9 ErrMin= 9.56D-08
 ErrMax= 9.56D-08  0.00D+00 EMaxC= 1.00D-01 BMatC= 2.90D-11 BMatP= 2.36D-10
 IDIUse=1 WtCom= 1.00D+00 WtEn= 0.00D+00
 Coeff-Com: -0.249D-03 0.246D-01 0.262D-01 0.234D-01-0.677D-01-0.159D+00
 Coeff-Com: -0.521D-01 0.224D+00 0.981D+00
 Coeff:     -0.249D-03 0.246D-01 0.262D-01 0.234D-01-0.677D-01-0.159D+00
 Coeff:     -0.521D-01 0.224D+00 0.981D+00
 Gap=     0.086 Goal=   None    Shift=    0.000
 Gap=     0.128 Goal=   None    Shift=    0.000
 RMSDP=3.31D-08 MaxDP=1.75D-06 DE=-8.14D-11 OVMax= 6.50D-06

 Cycle  22  Pass 1  IDiag  1:
 RMSU=  1.66D-08    CP:  1.00D+00  1.01D+00  5.35D-01  7.32D-01  1.91D+00
                    CP:  1.60D+00  1.22D+00  1.18D+00  1.16D+00
 E= -1385.76906716843     Delta-E=       -0.000000000056 Rises=F Damp=F
 DIIS: error= 4.39D-08 at cycle  10 NSaved=  10.
 NSaved=10 IEnMin=10 EnMin= -1385.76906716843     IErMin=10 ErrMin= 4.39D-08
 ErrMax= 4.39D-08  0.00D+00 EMaxC= 1.00D-01 BMatC= 9.74D-12 BMatP= 2.90D-11
 IDIUse=1 WtCom= 1.00D+00 WtEn= 0.00D+00
 Coeff-Com: -0.293D-03 0.229D-01 0.243D-01 0.234D-01-0.382D-01-0.125D+00
 Coeff-Com: -0.111D+00-0.347D-02 0.518D+00 0.690D+00
 Coeff:     -0.293D-03 0.229D-01 0.243D-01 0.234D-01-0.382D-01-0.125D+00
 Coeff:     -0.111D+00-0.347D-02 0.518D+00 0.690D+00
 Gap=     0.086 Goal=   None    Shift=    0.000
 Gap=     0.128 Goal=   None    Shift=    0.000
 RMSDP=1.29D-08 MaxDP=7.06D-07 DE=-5.64D-11 OVMax= 2.01D-06

 Cycle  23  Pass 1  IDiag  1:
 RMSU=  7.19D-09    CP:  1.00D+00  1.01D+00  5.35D-01  7.33D-01  1.92D+00
                    CP:  1.62D+00  1.26D+00  1.24D+00  1.36D+00  1.17D+00
 E= -1385.76906716845     Delta-E=       -0.000000000013 Rises=F Damp=F
 DIIS: error= 2.46D-08 at cycle  11 NSaved=  11.
 NSaved=11 IEnMin=11 EnMin= -1385.76906716845     IErMin=11 ErrMin= 2.46D-08
 ErrMax= 2.46D-08  0.00D+00 EMaxC= 1.00D-01 BMatC= 2.32D-12 BMatP= 9.74D-12
 IDIUse=1 WtCom= 1.00D+00 WtEn= 0.00D+00
 Coeff-Com: -0.958D-04 0.638D-02 0.681D-02 0.676D-02-0.506D-02-0.303D-01
 Coeff-Com: -0.473D-01-0.406D-01 0.522D-01 0.355D+00 0.696D+00
 Coeff:     -0.958D-04 0.638D-02 0.681D-02 0.676D-02-0.506D-02-0.303D-01
 Coeff:     -0.473D-01-0.406D-01 0.522D-01 0.355D+00 0.696D+00
 Gap=     0.086 Goal=   None    Shift=    0.000
 Gap=     0.128 Goal=   None    Shift=    0.000
 RMSDP=5.33D-09 MaxDP=2.55D-07 DE=-1.32D-11 OVMax= 8.65D-07

 SCF Done:  E(UB3LYP) =  -1385.76906717     A.U. after   23 cycles
            NFock= 23  Conv=0.53D-08     -V/T= 2.0073
 <Sx>= 0.0000 <Sy>= 0.0000 <Sz>= 0.5000 <S**2>= 0.7631 S= 0.5066
 <L.S>= 0.000000000000E+00
 KE= 1.375715886364D+03 PE=-7.146933582100D+03 EE= 2.444840640945D+03
 Annihilation of the first spin contaminant:
 S**2 before annihilation     0.7631,   after     0.7501
 Leave Link  502 at Sat Jun  1 12:56:32 2024, MaxMem=   104857600 cpu:             817.2 elap:             409.2
 (Enter /software/spackages_v0_21_prod/apps/linux-ubuntu22.04-zen2/gcc-13.2.0/gaussian_sse4-16-C-g6jkfwqig4o4stofyyxv7ma3rrfxhpfk/g16/l601.exe)
 Copying SCF densities to generalized density rwf, IOpCl= 1 IROHF=0.

 **********************************************************************

            Population analysis using the SCF Density.

 **********************************************************************

 Alpha  occ. eigenvalues --  -88.78744 -19.07700 -19.07362 -14.25128 -14.18762
 Alpha  occ. eigenvalues --  -14.18508 -14.17073 -10.15622 -10.15170 -10.13330
 Alpha  occ. eigenvalues --  -10.13007 -10.09921 -10.09156 -10.08686 -10.07912
 Alpha  occ. eigenvalues --  -10.07858 -10.07781 -10.07753 -10.07157 -10.07095
 Alpha  occ. eigenvalues --  -10.05833 -10.03959 -10.03285  -7.84461  -5.81022
 Alpha  occ. eigenvalues --   -5.80456  -5.80213  -0.97310  -0.95368  -0.85539
 Alpha  occ. eigenvalues --   -0.84609  -0.78033  -0.72593  -0.72115  -0.67676
 Alpha  occ. eigenvalues --   -0.65040  -0.63449  -0.63338  -0.61331  -0.61080
 Alpha  occ. eigenvalues --   -0.56677  -0.55969  -0.51346  -0.48992  -0.47468
 Alpha  occ. eigenvalues --   -0.46063  -0.45580  -0.43675  -0.41486  -0.40456
 Alpha  occ. eigenvalues --   -0.39254  -0.38139  -0.37142  -0.36548  -0.36084
 Alpha  occ. eigenvalues --   -0.35096  -0.34620  -0.34174  -0.33161  -0.31646
 Alpha  occ. eigenvalues --   -0.30915  -0.30167  -0.29259  -0.28806  -0.28468
 Alpha  occ. eigenvalues --   -0.28045  -0.26893  -0.25577  -0.25263  -0.24242
 Alpha  occ. eigenvalues --   -0.22902  -0.22839  -0.22578  -0.21974  -0.21644
 Alpha  occ. eigenvalues --   -0.18420  -0.16681  -0.16071  -0.14912  -0.13247
 Alpha  occ. eigenvalues --   -0.12322  -0.10766  -0.10469  -0.08317  -0.06013
 Alpha  occ. eigenvalues --    0.01938
 Alpha virt. eigenvalues --    0.10536   0.14222   0.15890   0.16079   0.16854
 Alpha virt. eigenvalues --    0.18007   0.18798   0.19492   0.21617   0.22307
 Alpha virt. eigenvalues --    0.23008   0.23243   0.23599   0.24003   0.24599
 Alpha virt. eigenvalues --    0.24761   0.25606   0.26607   0.26723   0.27485
 Alpha virt. eigenvalues --    0.28109   0.29280   0.30232   0.30770   0.31959
 Alpha virt. eigenvalues --    0.32932   0.34125   0.35834   0.37289   0.38530
 Alpha virt. eigenvalues --    0.39711   0.40199   0.41599   0.42662   0.43979
 Alpha virt. eigenvalues --    0.44693   0.45999   0.47744   0.48762   0.48923
 Alpha virt. eigenvalues --    0.51075   0.51985   0.53383   0.54903   0.56244
 Alpha virt. eigenvalues --    0.57632   0.58299   0.58798   0.59745   0.60395
 Alpha virt. eigenvalues --    0.61611   0.62693   0.63170   0.63426   0.63929
 Alpha virt. eigenvalues --    0.64729   0.65881   0.66358   0.66588   0.67130
 Alpha virt. eigenvalues --    0.67881   0.68634   0.69023   0.69261   0.70493
 Alpha virt. eigenvalues --    0.71847   0.72480   0.73113   0.73678   0.73852
 Alpha virt. eigenvalues --    0.74881   0.75109   0.76605   0.76872   0.77492
 Alpha virt. eigenvalues --    0.78617   0.78899   0.80208   0.80333   0.80719
 Alpha virt. eigenvalues --    0.81427   0.83729   0.84871   0.86099   0.87261
 Alpha virt. eigenvalues --    0.88266   0.88417   0.88921   0.90421   0.90988
 Alpha virt. eigenvalues --    0.92586   0.93087   0.93598   0.93802   0.94999
 Alpha virt. eigenvalues --    0.95273   0.95426   0.96293   0.97264   0.98296
 Alpha virt. eigenvalues --    0.98884   0.99795   0.99898   1.01057   1.01535
 Alpha virt. eigenvalues --    1.02240   1.02859   1.03438   1.03936   1.04649
 Alpha virt. eigenvalues --    1.05235   1.06260   1.06889   1.08455   1.09660
 Alpha virt. eigenvalues --    1.10216   1.10822   1.11530   1.13341   1.14474
 Alpha virt. eigenvalues --    1.15518   1.16601   1.17811   1.18715   1.20502
 Alpha virt. eigenvalues --    1.21149   1.21451   1.23494   1.24906   1.25667
 Alpha virt. eigenvalues --    1.27398   1.28814   1.29940   1.30747   1.31883
 Alpha virt. eigenvalues --    1.34173   1.34774   1.36711   1.37548   1.38495
 Alpha virt. eigenvalues --    1.41526   1.42020   1.44581   1.45449   1.47435
 Alpha virt. eigenvalues --    1.48093   1.48961   1.50518   1.50579   1.51064
 Alpha virt. eigenvalues --    1.52607   1.53093   1.54439   1.55222   1.56158
 Alpha virt. eigenvalues --    1.57235   1.59491   1.61227   1.61588   1.62184
 Alpha virt. eigenvalues --    1.62908   1.65730   1.66092   1.69315   1.71137
 Alpha virt. eigenvalues --    1.73892   1.78480   1.79475   1.82101   1.83159
 Alpha virt. eigenvalues --    1.83569   1.86502   1.87706   1.89437   1.90441
 Alpha virt. eigenvalues --    1.91696   1.92154   1.94000   1.95470   1.96067
 Alpha virt. eigenvalues --    1.97966   1.98361   2.00327   2.00569   2.02016
 Alpha virt. eigenvalues --    2.03384   2.03710   2.04003   2.05250   2.06017
 Alpha virt. eigenvalues --    2.06694   2.07948   2.08177   2.10451   2.10983
 Alpha virt. eigenvalues --    2.12016   2.14090   2.15030   2.15723   2.16690
 Alpha virt. eigenvalues --    2.17804   2.18863   2.20176   2.20445   2.21324
 Alpha virt. eigenvalues --    2.27173   2.29842   2.30190   2.30897   2.31486
 Alpha virt. eigenvalues --    2.33951   2.34581   2.35507   2.36281   2.37184
 Alpha virt. eigenvalues --    2.37666   2.38998   2.39594   2.40496   2.42486
 Alpha virt. eigenvalues --    2.44947   2.45008   2.46704   2.47450   2.49398
 Alpha virt. eigenvalues --    2.49977   2.51206   2.51555   2.53408   2.55590
 Alpha virt. eigenvalues --    2.58421   2.59578   2.60796   2.62991   2.64670
 Alpha virt. eigenvalues --    2.65785   2.66922   2.70323   2.71722   2.72612
 Alpha virt. eigenvalues --    2.74601   2.74916   2.77183   2.77757   2.79926
 Alpha virt. eigenvalues --    2.80991   2.83628   2.84167   2.86194   2.87919
 Alpha virt. eigenvalues --    2.93315   2.94028   2.97640   2.99776   3.01606
 Alpha virt. eigenvalues --    3.02063   3.05841   3.06784   3.12013   3.13116
 Alpha virt. eigenvalues --    3.15002   3.20653   3.28376   3.32167   3.44419
 Alpha virt. eigenvalues --    3.45085   3.59152   3.60775   4.02315   4.09295
 Alpha virt. eigenvalues --    4.13464   4.17741   4.20106   4.22117   4.23180
 Alpha virt. eigenvalues --    4.25094   4.26644   4.29352   4.33742   4.34772
 Alpha virt. eigenvalues --    4.40539   4.43093   4.49130   4.51343   4.53618
 Alpha virt. eigenvalues --    4.54732   4.65504   4.75675   4.81414   4.90127
 Alpha virt. eigenvalues --    5.12142
  Beta  occ. eigenvalues --  -88.78624 -19.07679 -19.07363 -14.25095 -14.18315
  Beta  occ. eigenvalues --  -14.18076 -14.16897 -10.15624 -10.15170 -10.13265
  Beta  occ. eigenvalues --  -10.13020 -10.09923 -10.09131 -10.08746 -10.08009
  Beta  occ. eigenvalues --  -10.07881 -10.07765 -10.07568 -10.07109 -10.07106
  Beta  occ. eigenvalues --  -10.05868 -10.03748 -10.03160  -7.84345  -5.80961
  Beta  occ. eigenvalues --   -5.80399  -5.79807  -0.97278  -0.95352  -0.85473
  Beta  occ. eigenvalues --   -0.84084  -0.77574  -0.72535  -0.71308  -0.67586
  Beta  occ. eigenvalues --   -0.64956  -0.63394  -0.63008  -0.61085  -0.61000
  Beta  occ. eigenvalues --   -0.56581  -0.55883  -0.50960  -0.48703  -0.47381
  Beta  occ. eigenvalues --   -0.45869  -0.45412  -0.43495  -0.41428  -0.40444
  Beta  occ. eigenvalues --   -0.39145  -0.38091  -0.37135  -0.36484  -0.36057
  Beta  occ. eigenvalues --   -0.34955  -0.34463  -0.34095  -0.33106  -0.31524
  Beta  occ. eigenvalues --   -0.30745  -0.30059  -0.28747  -0.28473  -0.28142
  Beta  occ. eigenvalues --   -0.27884  -0.26850  -0.25284  -0.25195  -0.24126
  Beta  occ. eigenvalues --   -0.22833  -0.22513  -0.21953  -0.21586  -0.21061
  Beta  occ. eigenvalues --   -0.17646  -0.15823  -0.15669  -0.14429  -0.12739
  Beta  occ. eigenvalues --   -0.10987  -0.10212  -0.09254  -0.07996  -0.05138
  Beta virt. eigenvalues --    0.07622   0.11731   0.14678   0.16591   0.17112
  Beta virt. eigenvalues --    0.17286   0.18013   0.18808   0.19501   0.21711
  Beta virt. eigenvalues --    0.22841   0.23240   0.23581   0.23638   0.24014
  Beta virt. eigenvalues --    0.24616   0.24818   0.25633   0.26637   0.26753
  Beta virt. eigenvalues --    0.27539   0.28165   0.29365   0.30335   0.30924
  Beta virt. eigenvalues --    0.32370   0.33466   0.34206   0.35902   0.37385
  Beta virt. eigenvalues --    0.38690   0.39786   0.40249   0.41754   0.42890
  Beta virt. eigenvalues --    0.44049   0.44808   0.46203   0.47843   0.49113
  Beta virt. eigenvalues --    0.49459   0.51163   0.52237   0.53527   0.55032
  Beta virt. eigenvalues --    0.56413   0.57712   0.58431   0.58953   0.59829
  Beta virt. eigenvalues --    0.60483   0.61682   0.62713   0.63271   0.63484
  Beta virt. eigenvalues --    0.63972   0.64751   0.66010   0.66467   0.66767
  Beta virt. eigenvalues --    0.67198   0.67973   0.68731   0.69211   0.69463
  Beta virt. eigenvalues --    0.70656   0.71920   0.72620   0.73244   0.73881
  Beta virt. eigenvalues --    0.74054   0.75112   0.75366   0.76927   0.76941
  Beta virt. eigenvalues --    0.77569   0.78952   0.79121   0.80386   0.80488
  Beta virt. eigenvalues --    0.81808   0.82343   0.83952   0.85040   0.86145
  Beta virt. eigenvalues --    0.87589   0.88503   0.88717   0.89122   0.90434
  Beta virt. eigenvalues --    0.91094   0.92850   0.93122   0.93724   0.93878
  Beta virt. eigenvalues --    0.95087   0.95383   0.95552   0.96519   0.97347
  Beta virt. eigenvalues --    0.98415   0.98965   0.99912   1.00112   1.01088
  Beta virt. eigenvalues --    1.01957   1.02462   1.03462   1.03695   1.04251
  Beta virt. eigenvalues --    1.04891   1.05341   1.06444   1.07001   1.08597
  Beta virt. eigenvalues --    1.09744   1.10693   1.10922   1.11633   1.13586
  Beta virt. eigenvalues --    1.14562   1.15568   1.16804   1.18327   1.18915
  Beta virt. eigenvalues --    1.20646   1.21278   1.21499   1.23704   1.25157
  Beta virt. eigenvalues --    1.25920   1.27517   1.28934   1.30015   1.30859
  Beta virt. eigenvalues --    1.31998   1.34227   1.34888   1.36800   1.37733
  Beta virt. eigenvalues --    1.38862   1.41632   1.42270   1.44668   1.45578
  Beta virt. eigenvalues --    1.47538   1.48134   1.49068   1.50584   1.50641
  Beta virt. eigenvalues --    1.51429   1.52851   1.53268   1.54573   1.55470
  Beta virt. eigenvalues --    1.56428   1.57406   1.59688   1.61425   1.61616
  Beta virt. eigenvalues --    1.62246   1.63305   1.66080   1.66330   1.69340
  Beta virt. eigenvalues --    1.71281   1.73956   1.78556   1.79701   1.82163
  Beta virt. eigenvalues --    1.83402   1.83839   1.86671   1.88024   1.89578
  Beta virt. eigenvalues --    1.90537   1.91875   1.92204   1.94935   1.95773
  Beta virt. eigenvalues --    1.96180   1.98071   1.98520   2.00553   2.00740
  Beta virt. eigenvalues --    2.02154   2.03747   2.03900   2.05027   2.05502
  Beta virt. eigenvalues --    2.06110   2.06840   2.08155   2.08369   2.10653
  Beta virt. eigenvalues --    2.11136   2.12156   2.14145   2.15125   2.15771
  Beta virt. eigenvalues --    2.16805   2.17956   2.18919   2.20250   2.20561
  Beta virt. eigenvalues --    2.21767   2.27252   2.29914   2.30248   2.30916
  Beta virt. eigenvalues --    2.31591   2.33987   2.34676   2.35574   2.36341
  Beta virt. eigenvalues --    2.37379   2.37975   2.39270   2.39817   2.40762
  Beta virt. eigenvalues --    2.42909   2.45099   2.45579   2.46790   2.47937
  Beta virt. eigenvalues --    2.49565   2.50289   2.51537   2.51628   2.53574
  Beta virt. eigenvalues --    2.55998   2.58696   2.59645   2.61367   2.63203
  Beta virt. eigenvalues --    2.64902   2.65920   2.67097   2.70492   2.71833
  Beta virt. eigenvalues --    2.72914   2.74775   2.75045   2.77539   2.77878
  Beta virt. eigenvalues --    2.80255   2.81149   2.84056   2.84487   2.86350
  Beta virt. eigenvalues --    2.88022   2.93420   2.94084   2.97785   2.99871
  Beta virt. eigenvalues --    3.01675   3.02253   3.05903   3.06856   3.12170
  Beta virt. eigenvalues --    3.13233   3.15067   3.20690   3.28413   3.32221
  Beta virt. eigenvalues --    3.44438   3.45162   3.59237   3.60808   4.02860
  Beta virt. eigenvalues --    4.09324   4.14028   4.18124   4.20410   4.22178
  Beta virt. eigenvalues --    4.23323   4.25340   4.26918   4.29438   4.33861
  Beta virt. eigenvalues --    4.34791   4.40546   4.43125   4.49224   4.51470
  Beta virt. eigenvalues --    4.53653   4.54954   4.65584   4.75803   4.81456
  Beta virt. eigenvalues --    4.90303   5.12183
          Condensed to atoms (all electrons):
               1          2          3          4          5          6
     1  C    4.876683   0.263814  -0.047290  -0.009572   0.000552  -0.000011
     2  O    0.263814   8.217778   0.266796  -0.064131   0.002710  -0.000036
     3  C   -0.047290   0.266796   4.719988   0.454894   0.016196   0.006039
     4  C   -0.009572  -0.064131   0.454894   5.400884   0.408410  -0.095228
     5  C    0.000552   0.002710   0.016196   0.408410   4.763180   0.390796
     6  C   -0.000011  -0.000036   0.006039  -0.095228   0.390796   5.372943
     7  C    0.000000   0.000000  -0.000073   0.008068  -0.000960   0.512851
     8  C    0.000000  -0.000000   0.000002  -0.000169   0.005787  -0.060892
     9  N    0.000000   0.000000  -0.000000   0.000000  -0.000160   0.005015
    10  C    0.000000  -0.000000   0.000000  -0.000000   0.000004  -0.000124
    11  C   -0.000000  -0.000000   0.000000   0.000000   0.000000  -0.000034
    12  C   -0.000000  -0.000000   0.000000  -0.000000  -0.000007   0.000287
    13  N   -0.000000   0.000000  -0.000000  -0.000000  -0.000000   0.000013
    14  S   -0.000000   0.000000  -0.000000   0.000000  -0.000004   0.000120
    15  N   -0.000000  -0.000000  -0.000000  -0.000018   0.000319  -0.013164
    16  C   -0.000000  -0.000000   0.000000  -0.000001   0.000343  -0.022070
    17  N   -0.000000  -0.000000  -0.000369   0.013999  -0.021934  -0.119792
    18  C    0.000000   0.000000   0.000020  -0.000193   0.005653   0.008284
    19  C    0.000006   0.000082  -0.037200  -0.040039   0.476282  -0.048785
    20  C   -0.000082   0.003727  -0.059577  -0.067871  -0.065460   0.020278
    21  C    0.005732  -0.054980   0.472012  -0.059103  -0.028796  -0.000078
    22  O    0.000027  -0.001016  -0.055380   0.003669   0.000143  -0.000001
    23  C    0.000004   0.000019   0.005767  -0.000082   0.000005  -0.000000
    24  H    0.382733  -0.036285   0.003227   0.000098   0.000005   0.000000
    25  H    0.358474  -0.037492  -0.004265   0.007085  -0.000176  -0.000006
    26  H    0.358801  -0.037473  -0.004049   0.006887  -0.000189  -0.000008
    27  H    0.005757  -0.007739  -0.057861   0.345228  -0.030078  -0.006048
    28  H   -0.000000  -0.000000  -0.000037  -0.005898  -0.043632   0.348825
    29  H    0.000000   0.000000  -0.000000   0.000000   0.000000   0.000002
    30  H   -0.000000  -0.000000  -0.000000  -0.000000   0.000000  -0.000000
    31  H    0.000000   0.000000   0.000000  -0.000010  -0.000207  -0.000106
    32  H    0.000000   0.000000  -0.000001  -0.000013  -0.000094   0.000027
    33  H    0.000000  -0.000000  -0.000000   0.000007   0.000097  -0.000575
    34  H    0.000003  -0.000047   0.003405   0.000245   0.005041  -0.000314
    35  H    0.000000  -0.000005  -0.000447  -0.000022   0.000006   0.000000
    36  H    0.000000  -0.000005  -0.000450  -0.000016   0.000001   0.000000
    37  H   -0.000001  -0.000000   0.000138   0.000008  -0.000000  -0.000000
               7          8          9         10         11         12
     1  C    0.000000   0.000000   0.000000   0.000000  -0.000000  -0.000000
     2  O    0.000000  -0.000000   0.000000  -0.000000  -0.000000  -0.000000
     3  C   -0.000073   0.000002  -0.000000   0.000000   0.000000   0.000000
     4  C    0.008068  -0.000169   0.000000  -0.000000   0.000000  -0.000000
     5  C   -0.000960   0.005787  -0.000160   0.000004   0.000000  -0.000007
     6  C    0.512851  -0.060892   0.005015  -0.000124  -0.000034   0.000287
[...]
     5  C(13)             -0.00505      -5.67345      -2.02443      -1.89246
     6  C(13)              0.01010      11.35647       4.05227       3.78811
     7  C(13)             -0.01054     -11.85332      -4.22956      -3.95384
     8  C(13)              0.02124      23.87563       8.51942       7.96405
     9  N(14)              0.01294       4.18179       1.49217       1.39489
    10  C(13)             -0.00388      -4.36221      -1.55655      -1.45508
    11  C(13)              0.01700      19.11586       6.82101       6.37636
    12  C(13)             -0.01238     -13.91541      -4.96536      -4.64168
    13  N(14)              0.03307      10.68576       3.81294       3.56438
    14  S(33)              0.02415       8.29595       2.96020       2.76723
    15  N(14)              0.03453      11.15753       3.98128       3.72175
    16  C(13)             -0.01380     -15.50900      -5.53400      -5.17324
    17  N(14)              0.00325       1.04996       0.37465       0.35023
    18  C(13)             -0.00067      -0.74893      -0.26724      -0.24982
    19  C(13)              0.00172       1.92815       0.68801       0.64316
    20  C(13)             -0.00202      -2.26817      -0.80934      -0.75658
    21  C(13)              0.00463       5.21001       1.85906       1.73787
    22  O(17)              0.00177      -1.07543      -0.38374      -0.35873
    23  C(13)             -0.00021      -0.23826      -0.08502      -0.07947
    24  H(1)               0.00000       0.00801       0.00286       0.00267
    25  H(1)               0.00003       0.15394       0.05493       0.05135
    26  H(1)               0.00003       0.15536       0.05544       0.05182
    27  H(1)              -0.00056      -2.52256      -0.90011      -0.84144
    28  H(1)              -0.00146      -6.53698      -2.33256      -2.18050
    29  H(1)              -0.00027      -1.22780      -0.43811      -0.40955
    30  H(1)              -0.00249     -11.13615      -3.97366      -3.71462
    31  H(1)               0.00035       1.57046       0.56038       0.52385
    32  H(1)               0.00021       0.93268       0.33280       0.31111
    33  H(1)               0.00004       0.16545       0.05904       0.05519
    34  H(1)               0.00008       0.37963       0.13546       0.12663
    35  H(1)               0.00019       0.84773       0.30249       0.28277
    36  H(1)               0.00019       0.86756       0.30957       0.28939
    37  H(1)              -0.00002      -0.08847      -0.03157      -0.02951
 --------------------------------------------------------
       Center         ----  Spin Dipole Couplings  ----
                      3XX-RR        3YY-RR        3ZZ-RR
 --------------------------------------------------------
     1   Atom        0.000604     -0.000316     -0.000288
     2   Atom        0.001814      0.000040     -0.001854
     3   Atom        0.003632      0.001168     -0.004799
     4   Atom       -0.017003     -0.005303      0.022306
     5   Atom        0.013999      0.000839     -0.014838
     6   Atom       -0.042736     -0.005506      0.048242
     7   Atom        0.020855      0.002641     -0.023496
     8   Atom       -0.113250     -0.078738      0.191988
     9   Atom       -0.100821     -0.074464      0.175285
    10   Atom        0.005703     -0.002645     -0.003058
    11   Atom       -0.079731     -0.057571      0.137301
    12   Atom        0.023929      0.032760     -0.056688
    13   Atom       -0.240148     -0.174559      0.414707
    14   Atom       -0.480561     -0.372196      0.852757
    15   Atom       -0.247558     -0.181108      0.428666
    16   Atom        0.020096      0.033499     -0.053595
    17   Atom       -0.015088      0.001097      0.013991
    18   Atom        0.000280      0.000554     -0.000834
    19   Atom       -0.008312     -0.004263      0.012576
    20   Atom        0.004481     -0.000236     -0.004245
    21   Atom       -0.024555     -0.006309      0.030865
    22   Atom       -0.018342     -0.003793      0.022135
    23   Atom       -0.000052      0.000467     -0.000415
    24   Atom        0.000389     -0.000171     -0.000218
    25   Atom        0.000525     -0.000330     -0.000196
    26   Atom        0.000597     -0.000164     -0.000433
    27   Atom       -0.000995      0.001126     -0.000131
    28   Atom        0.000410      0.001338     -0.001749
    29   Atom        0.002187      0.000599     -0.002786
    30   Atom        0.011447     -0.008664     -0.002784
    31   Atom        0.000092      0.000870     -0.000962
    32   Atom        0.000128     -0.000071     -0.000058
    33   Atom        0.000096      0.001253     -0.001349
    34   Atom        0.000753     -0.000015     -0.000738
    35   Atom       -0.000047      0.000045      0.000002
    36   Atom       -0.000076      0.000513     -0.000437
    37   Atom        0.000141      0.000113     -0.000254
 --------------------------------------------------------
                        XY            XZ            YZ
 --------------------------------------------------------
     1   Atom        0.000193      0.000212      0.000014
     2   Atom        0.000100      0.000781      0.001549
     3   Atom       -0.001024      0.000545      0.004629
     4   Atom        0.001140     -0.002419     -0.022742
     5   Atom       -0.002494      0.002222      0.012643
     6   Atom        0.008231     -0.013231     -0.066370
     7   Atom       -0.001688      0.001328      0.018949
     8   Atom        0.003565     -0.007261     -0.097900
     9   Atom        0.004404     -0.006489     -0.090559
    10   Atom       -0.002722     -0.001045     -0.000262
    11   Atom        0.001331     -0.003734     -0.072525
    12   Atom       -0.003931      0.000452      0.031821
    13   Atom        0.005232     -0.008315     -0.198981
    14   Atom        0.007106     -0.018670     -0.426481
    15   Atom       -0.001900     -0.006864     -0.203729
    16   Atom        0.001073      0.002485      0.029332
    17   Atom       -0.002481      0.000314     -0.023797
    18   Atom       -0.001239     -0.000920      0.001295
    19   Atom       -0.000763     -0.001426     -0.011923
    20   Atom       -0.000608      0.000398      0.004223
    21   Atom        0.002424     -0.005301     -0.032852
    22   Atom        0.002004     -0.004319     -0.022547
    23   Atom       -0.000441     -0.000187      0.000677
    24   Atom        0.000104      0.000131      0.000061
    25   Atom        0.000175      0.000399      0.000153
    26   Atom        0.000354      0.000123      0.000072
    27   Atom        0.000616      0.000482      0.001304
    28   Atom       -0.003841     -0.001350      0.002717
    29   Atom        0.003300      0.001203      0.001375
    30   Atom        0.003181      0.001275     -0.002129
    31   Atom       -0.000852     -0.000243      0.000607
    32   Atom       -0.000721     -0.000662      0.001119
    33   Atom       -0.002162     -0.001097      0.002098
    34   Atom       -0.000628     -0.000219      0.000445
    35   Atom       -0.000279     -0.000221      0.000507
    36   Atom       -0.000326     -0.000057      0.000227
    37   Atom       -0.000486     -0.000232      0.000228
 --------------------------------------------------------


 ---------------------------------------------------------------------------------
              Anisotropic Spin Dipole Couplings in Principal Axis System
 ---------------------------------------------------------------------------------

       Atom             a.u.   MegaHertz   Gauss  10(-4) cm-1        Axes

              Baa    -0.0004    -0.050    -0.018    -0.017 -0.2750  0.7907  0.5470
     1 C(13)  Bbb    -0.0003    -0.042    -0.015    -0.014 -0.0641 -0.5827  0.8101
              Bcc     0.0007     0.092     0.033     0.031  0.9593  0.1877  0.2109
 
              Baa    -0.0028     0.203     0.073     0.068 -0.1372 -0.4693  0.8723
     2 O(17)  Bbb     0.0007    -0.053    -0.019    -0.018 -0.3619  0.8435  0.3969
              Bcc     0.0021    -0.151    -0.054    -0.050  0.9221  0.2613  0.2855
 
              Baa    -0.0074    -0.994    -0.355    -0.332 -0.0877 -0.4812  0.8722
     3 C(13)  Bbb     0.0031     0.412     0.147     0.137  0.6970  0.5959  0.3989
              Bcc     0.0043     0.582     0.208     0.194  0.7117 -0.6429 -0.2832
 
              Baa    -0.0181    -2.434    -0.869    -0.812  0.1885  0.8512  0.4899
     4 C(13)  Bbb    -0.0171    -2.295    -0.819    -0.766  0.9808 -0.1890 -0.0489
              Bcc     0.0352     4.729     1.687     1.577 -0.0510 -0.4897  0.8704
 
              Baa    -0.0222    -2.972    -1.061    -0.991 -0.0870 -0.4873  0.8689
     5 C(13)  Bbb     0.0077     1.033     0.368     0.344  0.1632  0.8535  0.4950
              Bcc     0.0145     1.940     0.692     0.647  0.9828 -0.1848 -0.0052
 
              Baa    -0.0503    -6.749    -2.408    -2.251  0.0965  0.8195  0.5649
     6 C(13)  Bbb    -0.0444    -5.964    -2.128    -1.989  0.9889 -0.1432  0.0387
              Bcc     0.0947    12.713     4.536     4.241 -0.1126 -0.5550  0.8242
 
              Baa    -0.0335    -4.498    -1.605    -1.500 -0.0361 -0.4652  0.8845
     7 C(13)  Bbb     0.0125     1.677     0.599     0.560  0.1034  0.8786  0.4663
              Bcc     0.0210     2.820     1.006     0.941  0.9940 -0.1083 -0.0164
 
              Baa    -0.1138   -15.275    -5.451    -5.095  0.9467 -0.3127 -0.0776
     8 C(13)  Bbb    -0.1100   -14.766    -5.269    -4.925  0.3213  0.8985  0.2990
              Bcc     0.2239    30.041    10.720    10.021 -0.0237 -0.3080  0.9511
 
              Baa    -0.1050    -4.051    -1.445    -1.351 -0.4772  0.8394  0.2601
     9 N(14)  Bbb    -0.0998    -3.850    -1.374    -1.284  0.8785  0.4473  0.1680
              Bcc     0.2049     7.901     2.819     2.635 -0.0246 -0.3087  0.9508
 
              Baa    -0.0039    -0.519    -0.185    -0.173  0.2787  0.7488  0.6014
    10 C(13)  Bbb    -0.0027    -0.367    -0.131    -0.122 -0.0958 -0.6014  0.7932
              Bcc     0.0066     0.886     0.316     0.296  0.9556 -0.2786 -0.0959
 
              Baa    -0.0816   -10.950    -3.907    -3.653 -0.0491  0.9484  0.3134
    11 C(13)  Bbb    -0.0798   -10.707    -3.821    -3.572  0.9987  0.0414  0.0310
              Bcc     0.1614    21.658     7.728     7.224 -0.0164 -0.3145  0.9491
 
              Baa    -0.0669    -8.975    -3.202    -2.994 -0.0179 -0.3048  0.9522
    12 C(13)  Bbb     0.0233     3.126     1.115     1.043  0.9834  0.1667  0.0719
              Bcc     0.0436     5.849     2.087     1.951 -0.1807  0.9377  0.2967
 
              Baa    -0.2414    -9.310    -3.322    -3.105  0.9175 -0.3837 -0.1047
    13 N(14)  Bbb    -0.2343    -9.038    -3.225    -3.015  0.3975  0.8759  0.2736
              Bcc     0.4757    18.348     6.547     6.120 -0.0132 -0.2927  0.9561
 
              Baa    -0.5061   -20.750    -7.404    -6.921 -0.0470  0.9532  0.2985
    14 S(33)  Bbb    -0.4808   -19.711    -7.034    -6.575  0.9988  0.0408  0.0270
              Bcc     0.9869    40.461    14.438    13.496 -0.0136 -0.2994  0.9540
 
              Baa    -0.2497    -9.632    -3.437    -3.213  0.8731  0.4645  0.1483
    15 N(14)  Bbb    -0.2408    -9.286    -3.314    -3.098 -0.4875  0.8367  0.2496
              Bcc     0.4905    18.918     6.750     6.310 -0.0082 -0.2902  0.9569
 
              Baa    -0.0626    -8.401    -2.998    -2.802 -0.0249 -0.2916  0.9562
    16 C(13)  Bbb     0.0200     2.685     0.958     0.896  0.9967 -0.0817  0.0011
              Bcc     0.0426     5.716     2.039     1.907  0.0778  0.9531  0.2926
 
              Baa    -0.0182    -0.700    -0.250    -0.234  0.5085  0.6945  0.5090
    17 N(14)  Bbb    -0.0141    -0.544    -0.194    -0.181  0.8603 -0.3843 -0.3351
              Bcc     0.0323     1.244     0.444     0.415  0.0371 -0.6083  0.7928
 
              Baa    -0.0016    -0.219    -0.078    -0.073  0.1357 -0.4472  0.8841
    18 C(13)  Bbb    -0.0008    -0.107    -0.038    -0.036  0.8016  0.5740  0.1673
              Bcc     0.0024     0.326     0.116     0.109 -0.5823  0.6860  0.4364
 
              Baa    -0.0111    -1.488    -0.531    -0.496  0.4366  0.7926  0.4257
    19 C(13)  Bbb    -0.0077    -1.033    -0.369    -0.344  0.8990 -0.4021 -0.1733
              Bcc     0.0188     2.521     0.899     0.841 -0.0338 -0.4584  0.8881
 
              Baa    -0.0070    -0.933    -0.333    -0.311 -0.0578 -0.5351  0.8428
    20 C(13)  Bbb     0.0024     0.321     0.114     0.107  0.1395  0.8316  0.5376
              Bcc     0.0046     0.612     0.218     0.204  0.9885 -0.1487 -0.0266
 
              Baa    -0.0259    -3.470    -1.238    -1.157  0.5578  0.6945  0.4544
    21 C(13)  Bbb    -0.0246    -3.303    -1.179    -1.102  0.8264 -0.5156 -0.2263
              Bcc     0.0505     6.773     2.417     2.259 -0.0771 -0.5018  0.8616
 
              Baa    -0.0188     1.364     0.487     0.455  0.9745  0.1366  0.1779
    22 O(17)  Bbb    -0.0167     1.212     0.432     0.404 -0.2065  0.8562  0.4736
              Bcc     0.0356    -2.576    -0.919    -0.859 -0.0876 -0.4982  0.8626
 
              Baa    -0.0008    -0.105    -0.038    -0.035 -0.0765 -0.4947  0.8657
    23 C(13)  Bbb    -0.0003    -0.034    -0.012    -0.011  0.9133  0.3136  0.2600
              Bcc     0.0010     0.140     0.050     0.047 -0.4001  0.8105  0.4277
 
              Baa    -0.0003    -0.141    -0.050    -0.047 -0.1022 -0.4627  0.8806
    24 H(1)   Bbb    -0.0002    -0.092    -0.033    -0.031 -0.2598  0.8669  0.4253
              Bcc     0.0004     0.234     0.083     0.078  0.9602  0.1853  0.2088
 
              Baa    -0.0004    -0.236    -0.084    -0.079  0.1605  0.6999 -0.6960
    25 H(1)   Bbb    -0.0003    -0.164    -0.058    -0.055 -0.4272  0.6849  0.5902
              Bcc     0.0007     0.399     0.143     0.133  0.8898  0.2026  0.4090
 
              Baa    -0.0005    -0.241    -0.086    -0.081 -0.0551 -0.1777  0.9825
    26 H(1)   Bbb    -0.0003    -0.160    -0.057    -0.053 -0.3801  0.9137  0.1439
              Bcc     0.0008     0.402     0.143     0.134  0.9233  0.3656  0.1179
 
              Baa    -0.0012    -0.646    -0.231    -0.216  0.9301 -0.0414 -0.3649
    27 H(1)   Bbb    -0.0009    -0.494    -0.176    -0.165  0.2771 -0.5729  0.7714
              Bcc     0.0021     1.141     0.407     0.381  0.2410  0.8186  0.5214
 
              Baa    -0.0037    -1.964    -0.701    -0.655  0.4043  0.6550 -0.6384
    28 H(1)   Bbb    -0.0022    -1.172    -0.418    -0.391  0.6954  0.2332  0.6797
              Bcc     0.0059     3.136     1.119     1.046 -0.5941  0.7188  0.3612
 
              Baa    -0.0033    -1.747    -0.623    -0.583 -0.0112 -0.3261  0.9453
    29 H(1)   Bbb    -0.0019    -1.023    -0.365    -0.341 -0.6500  0.7207  0.2410
              Bcc     0.0052     2.771     0.989     0.924  0.7598  0.6118  0.2200
 
              Baa    -0.0099    -5.283    -1.885    -1.762 -0.1582  0.9379  0.3089
    30 H(1)   Bbb    -0.0021    -1.119    -0.399    -0.373 -0.0154 -0.3151  0.9489
              Bcc     0.0120     6.402     2.284     2.135  0.9873  0.1454  0.0642
 
              Baa    -0.0011    -0.611    -0.218    -0.204 -0.0149 -0.2941  0.9557
    31 H(1)   Bbb    -0.0004    -0.232    -0.083    -0.077  0.8591  0.4853  0.1627
              Bcc     0.0016     0.843     0.301     0.281 -0.5116  0.8234  0.2454
 
              Baa    -0.0012    -0.632    -0.226    -0.211  0.0498  0.7235 -0.6886
    32 H(1)   Bbb    -0.0005    -0.261    -0.093    -0.087  0.8435  0.3387  0.4169
              Bcc     0.0017     0.893     0.319     0.298 -0.5348  0.6016  0.5933
 
              Baa    -0.0025    -1.346    -0.480    -0.449 -0.0648 -0.5128  0.8561
    33 H(1)   Bbb    -0.0014    -0.759    -0.271    -0.253  0.8438  0.4297  0.3213
              Bcc     0.0039     2.105     0.751     0.702 -0.5327  0.7432  0.4049
 
              Baa    -0.0010    -0.509    -0.182    -0.170 -0.0540 -0.4570  0.8878
    34 H(1)   Bbb    -0.0002    -0.128    -0.046    -0.043  0.5505  0.7282  0.4083
              Bcc     0.0012     0.637     0.227     0.213  0.8331 -0.5108 -0.2122
 
              Baa    -0.0005    -0.260    -0.093    -0.087  0.1056  0.7144 -0.6917
    35 H(1)   Bbb    -0.0002    -0.113    -0.040    -0.038  0.8970  0.2318  0.3764
              Bcc     0.0007     0.374     0.133     0.125 -0.4292  0.6602  0.6163
 
              Baa    -0.0005    -0.261    -0.093    -0.087 -0.0547 -0.2377  0.9698
    36 H(1)   Bbb    -0.0002    -0.115    -0.041    -0.038  0.9193  0.3671  0.1418
              Bcc     0.0007     0.376     0.134     0.125 -0.3897  0.8993  0.1984
 
              Baa    -0.0004    -0.194    -0.069    -0.065 -0.0913 -0.5043  0.8587
    37 H(1)   Bbb    -0.0004    -0.191    -0.068    -0.064  0.7279  0.5547  0.4031
              Bcc     0.0007     0.385     0.137     0.128  0.6796 -0.6618 -0.3164
 

 ---------------------------------------------------------------------------------

 No NMR shielding tensors so no spin-rotation constants.
 Leave Link  601 at Sat Jun  1 12:56:35 2024, MaxMem=   104857600 cpu:               2.5 elap:               2.6
 (Enter /software/spackages_v0_21_prod/apps/linux-ubuntu22.04-zen2/gcc-13.2.0/gaussian_sse4-16-C-g6jkfwqig4o4stofyyxv7ma3rrfxhpfk/g16/l9999.exe)
 Unable to Open any file for archive entry.
 1\1\GINC-ERC-HPC-COMP002\SP\UB3LYP\6-31G(d)\C16H14N4O2S1(1-,2)\K225548
 9\01-Jun-2024\0\\#p B3LYP/6-31G* SP, Geom=Checkpoint, nosymm\\b_18_v2 
 sp_a Smile String: COc1cc2cc(-c3nccc4nsnc34)n(C)c2cc1OC\\-1,2\C,0,4.59
 65292605,2.0201327364,1.6637313446\O,0,4.4168962818,0.8094027357,0.952
 3983057\C,0,3.1392662282,0.4495643457,0.6323212771\C,0,2.0047638214,1.
 1716611839,0.9464729872\C,0,0.7389095232,0.6789229039,0.5486000076\C,0
 ,-0.5861013586,1.1517714158,0.6871497966\C,0,-1.4436572428,0.227931390
 7,0.0897947664\C,0,-2.8939283365,0.2883139228,0.0470643762\N,0,-3.5955
 615686,-0.7784923687,-0.3205128527\C,0,-4.9579148466,-0.7614841226,-0.
 3504612472\C,0,-5.7507630948,0.3045572771,-0.0134149444\C,0,-5.0714852
 566,1.4866273632,0.381989449\N,0,-5.6323280301,2.6489651532,0.73623720
 85\S,0,-4.3902088435,3.6740352384,1.0756092835\N,0,-3.1137137796,2.677
 4209748,0.7858254015\C,0,-3.6203863364,1.5000527449,0.4149025222\N,0,-
 0.6618541757,-0.8267423525,-0.4189659688\C,0,-1.0496844624,-1.96747365
 81,-1.2384272286\C,0,0.6578964662,-0.5483805605,-0.1525369983\C,0,1.80
 45062823,-1.2905271521,-0.4862880154\C,0,3.0375633033,-0.7908945988,-0
 .0913652527\O,0,4.2294570357,-1.3975858584,-0.3374531635\C,0,4.2192736
 944,-2.6247976011,-1.0456742942\H,0,5.6726277082,2.1202949073,1.817840
 3128\H,0,4.0899206224,1.9954539876,2.6384559496\H,0,4.2287752668,2.883
 4820852,1.0921262604\H,0,2.0720246217,2.1085097864,1.4870134458\H,0,-0
 .9063711554,2.0578801444,1.1756109261\H,0,-5.4118100068,-1.6975505269,
 -0.6689999375\H,0,-6.8331260806,0.2631585368,-0.0474442176\H,0,-0.6502
 147761,-2.8884787175,-0.7979956588\H,0,-0.6478676803,-1.8615566897,-2.
 2542522365\H,0,-2.1332688978,-2.0280709125,-1.2681049782\H,0,1.7289162
 322,-2.2225378259,-1.0313680408\H,0,3.7925039268,-2.5064321966,-2.0508
 560132\H,0,3.6565233552,-3.3975706,-0.5047056096\H,0,5.2639122992,-2.9
 295430923,-1.1294969627\\Version=ES64L-G16RevC.01\HF=-1385.7690672\S2=
 0.763148\S2-1=0.\S2A=0.750139\RMSD=5.328e-09\Dipole=3.6759567,-1.59442
 06,-0.4846529\Quadrupole=-38.6390079,14.8176137,23.8213942,22.2293838,
 5.6715079,0.4776515\PG=C01 [X(C16H14N4O2S1)]\\@
 The archive entry for this job was punched.


 THERE ONCE WAS A GIRL NAMED IRENE,
 WHO LIVED ON DISTILLED KEROSENE,
      BUT SHE STARTED ABSORBIN'
      A NEW HYDROCARBON,
 AND SINCE THEN HAS NEVER BENZENE.
 Job cpu time:       0 days  0 hours 14 minutes  3.3 seconds.
 Elapsed time:       0 days  0 hours  7 minutes  4.8 seconds.
 File lengths (MBytes):  RWF=    192 Int=      0 D2E=      0 Chk=    268 Scr=      8
 Normal termination of Gaussian 16 at Sat Jun  1 12:56:35 2024.
