 Entering Gaussian System, Link 0=g16
 Input=b_18_v2_opt_c.com
 Output=b_18_v2_opt_c.log
 Initial command:
 /software/spackages_v0_21_prod/apps/linux-ubuntu22.04-zen2/gcc-13.2.0/gaussian_sse4-16-C-g6jkfwqig4o4stofyyxv7ma3rrfxhpfk/g16/l1.exe "/scratch/prj/mime/TSJ_funnel_project/paper_fix_dimers/b_18_v2/Gau-4082273.inp" -scrdir="/scratch/prj/mime/TSJ_funnel_project/paper_fix_dimers/b_18_v2/"
 Entering Link 1 = /software/spackages_v0_21_prod/apps/linux-ubuntu22.04-zen2/gcc-13.2.0/gaussian_sse4-16-C-g6jkfwqig4o4stofyyxv7ma3rrfxhpfk/g16/l1.exe PID=   4082281.
  
 Copyright (c) 1988-2019, Gaussian, Inc.  All Rights Reserved.
  
 This is part of the Gaussian(R) 16 program.  It is based on
 the Gaussian(R) 09 system (copyright 2009, Gaussian, Inc.),
 the Gaussian(R) 03 system (copyright 2003, Gaussian, Inc.),
 the Gaussian(R) 98 system (copyright 1998, Gaussian, Inc.),
 the Gaussian(R) 94 system (copyright 1995, Gaussian, Inc.),
 the Gaussian 92(TM) system (copyright 1992, Gaussian, Inc.),
 the Gaussian 90(TM) system (copyright 1990, Gaussian, Inc.),
 the Gaussian 88(TM) system (copyright 1988, Gaussian, Inc.),
 the Gaussian 86(TM) system (copyright 1986, Carnegie Mellon
 University), and the Gaussian 82(TM) system (copyright 1983,
 Carnegie Mellon University). Gaussian is a federally registered
 trademark of Gaussian, Inc.
  
 This software contains proprietary and confidential information,
 including trade secrets, belonging to Gaussian, Inc.
  
 This software is provided under written license and may be
 used, copied, transmitted, or stored only in accord with that
 written license.
  
 The following legend is applicable only to US Government
 contracts under FAR:
  
                    RESTRICTED RIGHTS LEGEND
  
 Use, reproduction and disclosure by the US Government is
 subject to restrictions as set forth in subparagraphs (a)
 and (c) of the Commercial Computer Software - Restricted
 Rights clause in FAR 52.227-19.
  
 Gaussian, Inc.
 340 Quinnipiac St., Bldg. 40, Wallingford CT 06492
  
  
 ---------------------------------------------------------------
 Warning -- This program may not be used in any manner that
 competes with the business of Gaussian, Inc. or will provide
 assistance to any competitor of Gaussian, Inc.  The licensee
 of this program is prohibited from giving any competitor of
 Gaussian, Inc. access to this program.  By using this program,
 the user acknowledges that Gaussian, Inc. is engaged in the
 business of creating and licensing software in the field of
 computational chemistry and represents and warrants to the
 licensee that it is not a competitor of Gaussian, Inc. and that
 it will not use this program in any manner prohibited above.
 ---------------------------------------------------------------
  

 Cite this work as:
 Gaussian 16, Revision C.01,
 M. J. Frisch, G. W. Trucks, H. B. Schlegel, G. E. Scuseria, 
 M. A. Robb, J. R. Cheeseman, G. Scalmani, V. Barone, 
 G. A. Petersson, H. Nakatsuji, X. Li, M. Caricato, A. V. Marenich, 
 J. Bloino, B. G. Janesko, R. Gomperts, B. Mennucci, H. P. Hratchian, 
 J. V. Ortiz, A. F. Izmaylov, J. L. Sonnenberg, D. Williams-Young, 
 F. Ding, F. Lipparini, F. Egidi, J. Goings, B. Peng, A. Petrone, 
 T. Henderson, D. Ranasinghe, V. G. Zakrzewski, J. Gao, N. Rega, 
 G. Zheng, W. Liang, M. Hada, M. Ehara, K. Toyota, R. Fukuda, 
 J. Hasegawa, M. Ishida, T. Nakajima, Y. Honda, O. Kitao, H. Nakai, 
 T. Vreven, K. Throssell, J. A. Montgomery, Jr., J. E. Peralta, 
 F. Ogliaro, M. J. Bearpark, J. J. Heyd, E. N. Brothers, K. N. Kudin, 
 V. N. Staroverov, T. A. Keith, R. Kobayashi, J. Normand, 
 K. Raghavachari, A. P. Rendell, J. C. Burant, S. S. Iyengar, 
 J. Tomasi, M. Cossi, J. M. Millam, M. Klene, C. Adamo, R. Cammi, 
 J. W. Ochterski, R. L. Martin, K. Morokuma, O. Farkas, 
 J. B. Foresman, and D. J. Fox, Gaussian, Inc., Wallingford CT, 2019.
 
 ******************************************
 Gaussian 16:  ES64L-G16RevC.01  3-Jul-2019
                 1-Jun-2024 
 ******************************************
 %OldChk=b_18_v2_opt.chk
 %NProc=4
 Will use up to    4 processors via shared memory.
 %Chk=b_18_v2_opt_c.chk
 Copying data from "b_18_v2_opt.chk" to current chk file "b_18_v2_opt_c.chk"
 IOpt=  2 FromEx=T IUOpen= 4 IOptOp= 5 NList=   0 IFRang= 0 IUIn= 4 IUOut= 2.
 --------------------------------------------
 #p B3LYP/6-31G* opt, Geom=Checkpoint, nosymm
 --------------------------------------------
 1/18=20,19=15,26=3,29=2,38=1/1,3;
 2/9=110,12=2,15=1,40=1/2;
 3/5=1,6=6,7=1,11=2,14=-4,25=1,30=1,71=1,74=-5/1,2,3;
 4//1;
 5/5=2,38=5/2;
 6/7=2,8=2,9=2,10=2,28=1/1;
 7/30=1/1,2,3,16;
 1/18=20,19=15,26=3/3(2);
 2/9=110,15=1/2;
 99//99;
 2/9=110,15=1/2;
 3/5=1,6=6,7=1,11=2,14=-2,25=1,30=1,71=1,74=-5/1,2,3;
 4/5=5,16=3,69=1/1;
 5/5=2,38=5/2;
 7/30=1/1,2,3,16;
 1/18=20,19=15,26=3/3(-5);
 2/9=110,15=1/2;
 6/7=2,8=2,9=2,10=2,19=2,28=1/1;
 99/9=1/99;
 Leave Link    1 at Sat Jun  1 12:49:29 2024, MaxMem=   104857600 cpu:               1.2 elap:               0.7
 (Enter /software/spackages_v0_21_prod/apps/linux-ubuntu22.04-zen2/gcc-13.2.0/gaussian_sse4-16-C-g6jkfwqig4o4stofyyxv7ma3rrfxhpfk/g16/l101.exe)
 ----------------------------------------------------------------
 b_18_v2 opt_c Smile String: COc1cc2cc(-c3nccc4nsnc34)n(C)c2cc1OC
 ----------------------------------------------------------------
 Structure from the checkpoint file:  "b_18_v2_opt_c.chk"
 Charge =  1 Multiplicity = 2
 Redundant internal coordinates found in file.  (old form).
 C,0,4.5965292605,2.0201327364,1.6637313446
 O,0,4.4168962818,0.8094027357,0.9523983057
 C,0,3.1392662282,0.4495643457,0.6323212771
 C,0,2.0047638214,1.1716611839,0.9464729872
 C,0,0.7389095232,0.6789229039,0.5486000076
 C,0,-0.5861013586,1.1517714158,0.6871497966
 C,0,-1.4436572428,0.2279313907,0.0897947664
 C,0,-2.8939283365,0.2883139228,0.0470643762
 N,0,-3.5955615686,-0.7784923687,-0.3205128527
 C,0,-4.9579148466,-0.7614841226,-0.3504612472
 C,0,-5.7507630948,0.3045572771,-0.0134149444
 C,0,-5.0714852566,1.4866273632,0.381989449
 N,0,-5.6323280301,2.6489651532,0.7362372085
 S,0,-4.3902088435,3.6740352384,1.0756092835
 N,0,-3.1137137796,2.6774209748,0.7858254015
 C,0,-3.6203863364,1.5000527449,0.4149025222
 N,0,-0.6618541757,-0.8267423525,-0.4189659688
 C,0,-1.0496844624,-1.9674736581,-1.2384272286
 C,0,0.6578964662,-0.5483805605,-0.1525369983
 C,0,1.8045062823,-1.2905271521,-0.4862880154
 C,0,3.0375633033,-0.7908945988,-0.0913652527
 O,0,4.2294570357,-1.3975858584,-0.3374531635
 C,0,4.2192736944,-2.6247976011,-1.0456742942
 H,0,5.6726277082,2.1202949073,1.8178403128
 H,0,4.0899206224,1.9954539876,2.6384559496
 H,0,4.2287752668,2.8834820852,1.0921262604
 H,0,2.0720246217,2.1085097864,1.4870134458
 H,0,-0.9063711554,2.0578801444,1.1756109261
 H,0,-5.4118100068,-1.6975505269,-0.6689999375
 H,0,-6.8331260806,0.2631585368,-0.0474442176
 H,0,-0.6502147761,-2.8884787175,-0.7979956588
 H,0,-0.6478676803,-1.8615566897,-2.2542522365
 H,0,-2.1332688978,-2.0280709125,-1.2681049782
 H,0,1.7289162322,-2.2225378259,-1.0313680408
 H,0,3.7925039268,-2.5064321966,-2.0508560132
 H,0,3.6565233552,-3.3975706,-0.5047056096
 H,0,5.2639122992,-2.9295430923,-1.1294969627
 Recover connectivity data from disk.
 ITRead=  0  0  0  0  0  0  0  0  0  0  0  0  0  0  0  0  0  0  0  0
 ITRead=  0  0  0  0  0  0  0  0  0  0  0  0  0  0  0  0  0
 MicOpt= -1 -1 -1 -1 -1 -1 -1 -1 -1 -1 -1 -1 -1 -1 -1 -1 -1 -1 -1 -1
 MicOpt= -1 -1 -1 -1 -1 -1 -1 -1 -1 -1 -1 -1 -1 -1 -1 -1 -1
 NAtoms=     37 NQM=       37 NQMF=       0 NMMI=      0 NMMIF=      0
                NMic=       0 NMicF=      0.
                    Isotopes and Nuclear Properties:
 (Nuclear quadrupole moments (NQMom) in fm**2, nuclear magnetic moments (NMagM)
  in nuclear magnetons)

  Atom         1           2           3           4           5           6           7           8           9          10
 IAtWgt=          12          16          12          12          12          12          12          12          14          12
 AtmWgt=  12.0000000  15.9949146  12.0000000  12.0000000  12.0000000  12.0000000  12.0000000  12.0000000  14.0030740  12.0000000
 NucSpn=           0           0           0           0           0           0           0           0           2           0
 AtZEff=   3.6000000   5.6000000   3.6000000   3.6000000   3.6000000   3.6000000   3.6000000   3.6000000   4.5500000   3.6000000
 NQMom=    0.0000000   0.0000000   0.0000000   0.0000000   0.0000000   0.0000000   0.0000000   0.0000000   2.0440000   0.0000000
 NMagM=    0.0000000   0.0000000   0.0000000   0.0000000   0.0000000   0.0000000   0.0000000   0.0000000   0.4037610   0.0000000
 AtZNuc=   6.0000000   8.0000000   6.0000000   6.0000000   6.0000000   6.0000000   6.0000000   6.0000000   7.0000000   6.0000000

  Atom        11          12          13          14          15          16          17          18          19          20
 IAtWgt=          12          12          14          32          14          12          14          12          12          12
 AtmWgt=  12.0000000  12.0000000  14.0030740  31.9720718  14.0030740  12.0000000  14.0030740  12.0000000  12.0000000  12.0000000
 NucSpn=           0           0           2           0           2           0           2           0           0           0
 AtZEff=   3.6000000   3.6000000   4.5500000  13.6000000   4.5500000   3.6000000   4.5500000   3.6000000   3.6000000   3.6000000
 NQMom=    0.0000000   0.0000000   2.0440000   0.0000000   2.0440000   0.0000000   2.0440000   0.0000000   0.0000000   0.0000000
 NMagM=    0.0000000   0.0000000   0.4037610   0.0000000   0.4037610   0.0000000   0.4037610   0.0000000   0.0000000   0.0000000
 AtZNuc=   6.0000000   6.0000000   7.0000000  16.0000000   7.0000000   6.0000000   7.0000000   6.0000000   6.0000000   6.0000000

  Atom        21          22          23          24          25          26          27          28          29          30
 IAtWgt=          12          16          12           1           1           1           1           1           1           1
 AtmWgt=  12.0000000  15.9949146  12.0000000   1.0078250   1.0078250   1.0078250   1.0078250   1.0078250   1.0078250   1.0078250
 NucSpn=           0           0           0           1           1           1           1           1           1           1
 AtZEff=   3.6000000   5.6000000   3.6000000   1.0000000   1.0000000   1.0000000   1.0000000   1.0000000   1.0000000   1.0000000
 NQMom=    0.0000000   0.0000000   0.0000000   0.0000000   0.0000000   0.0000000   0.0000000   0.0000000   0.0000000   0.0000000
 NMagM=    0.0000000   0.0000000   0.0000000   2.7928460   2.7928460   2.7928460   2.7928460   2.7928460   2.7928460   2.7928460
 AtZNuc=   6.0000000   8.0000000   6.0000000   1.0000000   1.0000000   1.0000000   1.0000000   1.0000000   1.0000000   1.0000000

  Atom        31          32          33          34          35          36          37
 IAtWgt=           1           1           1           1           1           1           1
 AtmWgt=   1.0078250   1.0078250   1.0078250   1.0078250   1.0078250   1.0078250   1.0078250
 NucSpn=           1           1           1           1           1           1           1
 AtZEff=   1.0000000   1.0000000   1.0000000   1.0000000   1.0000000   1.0000000   1.0000000
 NQMom=    0.0000000   0.0000000   0.0000000   0.0000000   0.0000000   0.0000000   0.0000000
 NMagM=    2.7928460   2.7928460   2.7928460   2.7928460   2.7928460   2.7928460   2.7928460
 AtZNuc=   1.0000000   1.0000000   1.0000000   1.0000000   1.0000000   1.0000000   1.0000000
 Leave Link  101 at Sat Jun  1 12:49:29 2024, MaxMem=   104857600 cpu:               0.7 elap:               0.4
 (Enter /software/spackages_v0_21_prod/apps/linux-ubuntu22.04-zen2/gcc-13.2.0/gaussian_sse4-16-C-g6jkfwqig4o4stofyyxv7ma3rrfxhpfk/g16/l103.exe)

 GradGradGradGradGradGradGradGradGradGradGradGradGradGradGradGradGradGrad
 Berny optimization.
 Initialization pass.
                           ----------------------------
                           !    Initial Parameters    !
                           ! (Angstroms and Degrees)  !
 --------------------------                            --------------------------
 ! Name  Definition              Value          Derivative Info.                !
 --------------------------------------------------------------------------------
 ! R1    R(1,2)                  1.4157         estimate D2E/DX2                !
 ! R2    R(1,24)                 1.0917         estimate D2E/DX2                !
 ! R3    R(1,25)                 1.0988         estimate D2E/DX2                !
 ! R4    R(1,26)                 1.0988         estimate D2E/DX2                !
 ! R5    R(2,3)                  1.3654         estimate D2E/DX2                !
 ! R6    R(3,4)                  1.381          estimate D2E/DX2                !
 ! R7    R(3,21)                 1.4397         estimate D2E/DX2                !
 ! R8    R(4,5)                  1.4154         estimate D2E/DX2                !
 ! R9    R(4,27)                 1.0837         estimate D2E/DX2                !
 ! R10   R(5,6)                  1.4137         estimate D2E/DX2                !
 ! R11   R(5,19)                 1.4158         estimate D2E/DX2                !
 ! R12   R(6,7)                  1.3949         estimate D2E/DX2                !
 ! R13   R(6,28)                 1.0781         estimate D2E/DX2                !
 ! R14   R(7,8)                  1.4522         estimate D2E/DX2                !
 ! R15   R(7,17)                 1.408          estimate D2E/DX2                !
 ! R16   R(8,9)                  1.3287         estimate D2E/DX2                !
 ! R17   R(8,16)                 1.4599         estimate D2E/DX2                !
 ! R18   R(9,10)                 1.3628         estimate D2E/DX2                !
 ! R19   R(10,11)                1.3706         estimate D2E/DX2                !
 ! R20   R(10,29)                1.088          estimate D2E/DX2                !
 ! R21   R(11,12)                1.4195         estimate D2E/DX2                !
 ! R22   R(11,30)                1.0837         estimate D2E/DX2                !
 ! R23   R(12,13)                1.3383         estimate D2E/DX2                !
 ! R24   R(12,16)                1.4515         estimate D2E/DX2                !
 ! R25   R(13,14)                1.6458         estimate D2E/DX2                !
 ! R26   R(14,15)                1.6452         estimate D2E/DX2                !
 ! R27   R(15,16)                1.3344         estimate D2E/DX2                !
 ! R28   R(17,18)                1.4571         estimate D2E/DX2                !
 ! R29   R(17,19)                1.3748         estimate D2E/DX2                !
 ! R30   R(18,31)                1.0963         estimate D2E/DX2                !
 ! R31   R(18,32)                1.0975         estimate D2E/DX2                !
 ! R32   R(18,33)                1.0857         estimate D2E/DX2                !
 ! R33   R(19,20)                1.406          estimate D2E/DX2                !
 ! R34   R(20,21)                1.3878         estimate D2E/DX2                !
 ! R35   R(20,34)                1.0823         estimate D2E/DX2                !
 ! R36   R(21,22)                1.3599         estimate D2E/DX2                !
 ! R37   R(22,23)                1.4169         estimate D2E/DX2                !
 ! R38   R(23,35)                1.0984         estimate D2E/DX2                !
 ! R39   R(23,36)                1.0984         estimate D2E/DX2                !
 ! R40   R(23,37)                1.0914         estimate D2E/DX2                !
 ! A1    A(2,1,24)             105.9309         estimate D2E/DX2                !
 ! A2    A(2,1,25)             111.5937         estimate D2E/DX2                !
 ! A3    A(2,1,26)             111.5996         estimate D2E/DX2                !
 ! A4    A(24,1,25)            109.3484         estimate D2E/DX2                !
 ! A5    A(24,1,26)            109.3451         estimate D2E/DX2                !
 ! A6    A(25,1,26)            108.954          estimate D2E/DX2                !
 ! A7    A(1,2,3)              117.5108         estimate D2E/DX2                !
 ! A8    A(2,3,4)              125.2801         estimate D2E/DX2                !
 ! A9    A(2,3,21)             114.2678         estimate D2E/DX2                !
 ! A10   A(4,3,21)             120.4521         estimate D2E/DX2                !
 ! A11   A(3,4,5)              119.2562         estimate D2E/DX2                !
 ! A12   A(3,4,27)             120.964          estimate D2E/DX2                !
 ! A13   A(5,4,27)             119.7792         estimate D2E/DX2                !
 ! A14   A(4,5,6)              133.9671         estimate D2E/DX2                !
 ! A15   A(4,5,19)             119.4822         estimate D2E/DX2                !
 ! A16   A(6,5,19)             106.5505         estimate D2E/DX2                !
 ! A17   A(5,6,7)              108.2238         estimate D2E/DX2                !
 ! A18   A(5,6,28)             127.1565         estimate D2E/DX2                !
 ! A19   A(7,6,28)             124.6153         estimate D2E/DX2                !
 ! A20   A(6,7,8)              126.8017         estimate D2E/DX2                !
 ! A21   A(6,7,17)             108.0283         estimate D2E/DX2                !
 ! A22   A(8,7,17)             125.104          estimate D2E/DX2                !
 ! A23   A(7,8,9)              120.1407         estimate D2E/DX2                !
 ! A24   A(7,8,16)             121.6046         estimate D2E/DX2                !
 ! A25   A(9,8,16)             118.2514         estimate D2E/DX2                !
 ! A26   A(8,9,10)             121.5973         estimate D2E/DX2                !
 ! A27   A(9,10,11)            125.6315         estimate D2E/DX2                !
 ! A28   A(9,10,29)            114.3779         estimate D2E/DX2                !
 ! A29   A(11,10,29)           119.9894         estimate D2E/DX2                !
 ! A30   A(10,11,12)           116.0629         estimate D2E/DX2                !
 ! A31   A(10,11,30)           122.7047         estimate D2E/DX2                !
 ! A32   A(12,11,30)           121.2315         estimate D2E/DX2                !
 ! A33   A(11,12,13)           126.6144         estimate D2E/DX2                !
 ! A34   A(11,12,16)           119.4984         estimate D2E/DX2                !
 ! A35   A(13,12,16)           113.8854         estimate D2E/DX2                !
 ! A36   A(12,13,14)           106.2148         estimate D2E/DX2                !
 ! A37   A(13,14,15)            99.9017         estimate D2E/DX2                !
 ! A38   A(14,15,16)           106.7892         estimate D2E/DX2                !
 ! A39   A(8,16,12)            118.9511         estimate D2E/DX2                !
 ! A40   A(8,16,15)            127.8393         estimate D2E/DX2                !
 ! A41   A(12,16,15)           113.2076         estimate D2E/DX2                !
 ! A42   A(7,17,18)            129.9296         estimate D2E/DX2                !
 ! A43   A(7,17,19)            108.1393         estimate D2E/DX2                !
 ! A44   A(18,17,19)           121.5326         estimate D2E/DX2                !
 ! A45   A(17,18,31)           109.5592         estimate D2E/DX2                !
 ! A46   A(17,18,32)           110.3358         estimate D2E/DX2                !
 ! A47   A(17,18,33)           108.9484         estimate D2E/DX2                !
 ! A48   A(31,18,32)           108.6336         estimate D2E/DX2                !
 ! A49   A(31,18,33)           109.1339         estimate D2E/DX2                !
 ! A50   A(32,18,33)           110.2116         estimate D2E/DX2                !
 ! A51   A(5,19,17)            109.0511         estimate D2E/DX2                !
 ! A52   A(5,19,20)            121.9013         estimate D2E/DX2                !
 ! A53   A(17,19,20)           129.0464         estimate D2E/DX2                !
 ! A54   A(19,20,21)           117.8389         estimate D2E/DX2                !
 ! A55   A(19,20,34)           121.1387         estimate D2E/DX2                !
 ! A56   A(21,20,34)           121.0222         estimate D2E/DX2                !
 ! A57   A(3,21,20)            121.0635         estimate D2E/DX2                !
 ! A58   A(3,21,22)            114.4211         estimate D2E/DX2                !
 ! A59   A(20,21,22)           124.5154         estimate D2E/DX2                !
 ! A60   A(21,22,23)           118.0701         estimate D2E/DX2                !
 ! A61   A(22,23,35)           111.5219         estimate D2E/DX2                !
 ! A62   A(22,23,36)           111.5215         estimate D2E/DX2                !
 ! A63   A(22,23,37)           105.8633         estimate D2E/DX2                !
 ! A64   A(35,23,36)           109.1141         estimate D2E/DX2                !
 ! A65   A(35,23,37)           109.3712         estimate D2E/DX2                !
 ! A66   A(36,23,37)           109.3755         estimate D2E/DX2                !
 ! D1    D(24,1,2,3)           179.9497         estimate D2E/DX2                !
 ! D2    D(25,1,2,3)            61.0337         estimate D2E/DX2                !
 ! D3    D(26,1,2,3)           -61.135          estimate D2E/DX2                !
 ! D4    D(1,2,3,4)             -0.0048         estimate D2E/DX2                !
 ! D5    D(1,2,3,21)           179.9171         estimate D2E/DX2                !
 ! D6    D(2,3,4,5)            179.8999         estimate D2E/DX2                !
 ! D7    D(2,3,4,27)             0.1924         estimate D2E/DX2                !
 ! D8    D(21,3,4,5)            -0.0176         estimate D2E/DX2                !
 ! D9    D(21,3,4,27)         -179.725          estimate D2E/DX2                !
 ! D10   D(2,3,21,20)          179.9265         estimate D2E/DX2                !
 ! D11   D(2,3,21,22)           -0.0686         estimate D2E/DX2                !
 ! D12   D(4,3,21,20)           -0.1474         estimate D2E/DX2                !
 ! D13   D(4,3,21,22)          179.8575         estimate D2E/DX2                !
 ! D14   D(3,4,5,6)           -179.28           estimate D2E/DX2                !
 ! D15   D(3,4,5,19)             0.544          estimate D2E/DX2                !
 ! D16   D(27,4,5,6)             0.431          estimate D2E/DX2                !
 ! D17   D(27,4,5,19)         -179.745          estimate D2E/DX2                !
 ! D18   D(4,5,6,7)           -179.8709         estimate D2E/DX2                !
 ! D19   D(4,5,6,28)            -0.605          estimate D2E/DX2                !
 ! D20   D(19,5,6,7)             0.289          estimate D2E/DX2                !
 ! D21   D(19,5,6,28)          179.5549         estimate D2E/DX2                !
 ! D22   D(4,5,19,17)          179.411          estimate D2E/DX2                !
 ! D23   D(4,5,19,20)           -0.9411         estimate D2E/DX2                !
 ! D24   D(6,5,19,17)           -0.7212         estimate D2E/DX2                !
 ! D25   D(6,5,19,20)          178.9267         estimate D2E/DX2                !
 ! D26   D(5,6,7,8)            177.3838         estimate D2E/DX2                !
 ! D27   D(5,6,7,17)             0.2343         estimate D2E/DX2                !
 ! D28   D(28,6,7,8)            -1.9054         estimate D2E/DX2                !
 ! D29   D(28,6,7,17)         -179.0548         estimate D2E/DX2                !
 ! D30   D(6,7,8,9)           -166.7678         estimate D2E/DX2                !
 ! D31   D(6,7,8,16)            12.5613         estimate D2E/DX2                !
 ! D32   D(17,7,8,9)             9.9185         estimate D2E/DX2                !
 ! D33   D(17,7,8,16)         -170.7525         estimate D2E/DX2                !
 ! D34   D(6,7,17,18)         -173.3808         estimate D2E/DX2                !
 ! D35   D(6,7,17,19)           -0.6858         estimate D2E/DX2                !
 ! D36   D(8,7,17,18)            9.4091         estimate D2E/DX2                !
 ! D37   D(8,7,17,19)         -177.8959         estimate D2E/DX2                !
 ! D38   D(7,8,9,10)           178.9297         estimate D2E/DX2                !
 ! D39   D(16,8,9,10)           -0.4216         estimate D2E/DX2                !
 ! D40   D(7,8,16,12)         -178.5371         estimate D2E/DX2                !
 ! D41   D(7,8,16,15)            2.0044         estimate D2E/DX2                !
 ! D42   D(9,8,16,12)            0.8042         estimate D2E/DX2                !
 ! D43   D(9,8,16,15)         -178.6543         estimate D2E/DX2                !
 ! D44   D(8,9,10,11)           -0.4242         estimate D2E/DX2                !
 ! D45   D(8,9,10,29)          179.9876         estimate D2E/DX2                !
 ! D46   D(9,10,11,12)           0.814          estimate D2E/DX2                !
 ! D47   D(9,10,11,30)        -179.512          estimate D2E/DX2                !
 ! D48   D(29,10,11,12)       -179.619          estimate D2E/DX2                !
 ! D49   D(29,10,11,30)          0.0549         estimate D2E/DX2                !
 ! D50   D(10,11,12,13)        179.1144         estimate D2E/DX2                !
 ! D51   D(10,11,12,16)         -0.3599         estimate D2E/DX2                !
 ! D52   D(30,11,12,13)         -0.5647         estimate D2E/DX2                !
 ! D53   D(30,11,12,16)        179.961          estimate D2E/DX2                !
 ! D54   D(11,12,13,14)       -179.2443         estimate D2E/DX2                !
 ! D55   D(16,12,13,14)          0.2553         estimate D2E/DX2                !
 ! D56   D(11,12,16,8)          -0.4043         estimate D2E/DX2                !
 ! D57   D(11,12,16,15)        179.1304         estimate D2E/DX2                !
 ! D58   D(13,12,16,8)        -179.9428         estimate D2E/DX2                !
 ! D59   D(13,12,16,15)         -0.4081         estimate D2E/DX2                !
 ! D60   D(12,13,14,15)         -0.0542         estimate D2E/DX2                !
 ! D61   D(13,14,15,16)         -0.1711         estimate D2E/DX2                !
 ! D62   D(14,15,16,8)         179.82           estimate D2E/DX2                !
 ! D63   D(14,15,16,12)          0.3356         estimate D2E/DX2                !
 ! D64   D(7,17,18,31)        -130.7424         estimate D2E/DX2                !
 ! D65   D(7,17,18,32)         109.7002         estimate D2E/DX2                !
 ! D66   D(7,17,18,33)         -11.418          estimate D2E/DX2                !
 ! D67   D(19,17,18,31)         57.4077         estimate D2E/DX2                !
 ! D68   D(19,17,18,32)        -62.1498         estimate D2E/DX2                !
 ! D69   D(19,17,18,33)        176.732          estimate D2E/DX2                !
 ! D70   D(7,17,19,5)            0.8731         estimate D2E/DX2                !
 ! D71   D(7,17,19,20)        -178.742          estimate D2E/DX2                !
 ! D72   D(18,17,19,5)         174.3043         estimate D2E/DX2                !
 ! D73   D(18,17,19,20)         -5.3107         estimate D2E/DX2                !
 ! D74   D(5,19,20,21)           0.7674         estimate D2E/DX2                !
 ! D75   D(5,19,20,34)        -179.3783         estimate D2E/DX2                !
 ! D76   D(17,19,20,21)       -179.6612         estimate D2E/DX2                !
 ! D77   D(17,19,20,34)          0.1931         estimate D2E/DX2                !
 ! D78   D(19,20,21,3)          -0.221          estimate D2E/DX2                !
 ! D79   D(19,20,21,22)        179.7736         estimate D2E/DX2                !
 ! D80   D(34,20,21,3)         179.9245         estimate D2E/DX2                !
 ! D81   D(34,20,21,22)         -0.0809         estimate D2E/DX2                !
 ! D82   D(3,21,22,23)        -179.9953         estimate D2E/DX2                !
 ! D83   D(20,21,22,23)          0.0098         estimate D2E/DX2                !
 ! D84   D(21,22,23,35)         61.1851         estimate D2E/DX2                !
 ! D85   D(21,22,23,36)        -61.083          estimate D2E/DX2                !
 ! D86   D(21,22,23,37)       -179.9515         estimate D2E/DX2                !
 --------------------------------------------------------------------------------
 Trust Radius=3.00D-01 FncErr=1.00D-07 GrdErr=1.00D-06 EigMax=2.50D+02 EigMin=1.00D-04
 Number of steps in this run=    202 maximum allowed number of steps=    222.
 GradGradGradGradGradGradGradGradGradGradGradGradGradGradGradGradGradGrad

 Leave Link  103 at Sat Jun  1 12:49:29 2024, MaxMem=   104857600 cpu:               0.1 elap:               0.1
 (Enter /software/spackages_v0_21_prod/apps/linux-ubuntu22.04-zen2/gcc-13.2.0/gaussian_sse4-16-C-g6jkfwqig4o4stofyyxv7ma3rrfxhpfk/g16/l202.exe)
                          Input orientation:                          
 ---------------------------------------------------------------------
 Center     Atomic      Atomic             Coordinates (Angstroms)
 Number     Number       Type             X           Y           Z
 ---------------------------------------------------------------------
      1          6           0        4.596529    2.020133    1.663731
      2          8           0        4.416896    0.809403    0.952398
      3          6           0        3.139266    0.449564    0.632321
      4          6           0        2.004764    1.171661    0.946473
      5          6           0        0.738910    0.678923    0.548600
      6          6           0       -0.586101    1.151771    0.687150
      7          6           0       -1.443657    0.227931    0.089795
      8          6           0       -2.893928    0.288314    0.047064
      9          7           0       -3.595562   -0.778492   -0.320513
     10          6           0       -4.957915   -0.761484   -0.350461
     11          6           0       -5.750763    0.304557   -0.013415
     12          6           0       -5.071485    1.486627    0.381989
     13          7           0       -5.632328    2.648965    0.736237
     14         16           0       -4.390209    3.674035    1.075609
     15          7           0       -3.113714    2.677421    0.785825
     16          6           0       -3.620386    1.500053    0.414903
     17          7           0       -0.661854   -0.826742   -0.418966
     18          6           0       -1.049684   -1.967474   -1.238427
     19          6           0        0.657896   -0.548381   -0.152537
     20          6           0        1.804506   -1.290527   -0.486288
     21          6           0        3.037563   -0.790895   -0.091365
     22          8           0        4.229457   -1.397586   -0.337453
     23          6           0        4.219274   -2.624798   -1.045674
     24          1           0        5.672628    2.120295    1.817840
     25          1           0        4.089921    1.995454    2.638456
     26          1           0        4.228775    2.883482    1.092126
     27          1           0        2.072025    2.108510    1.487013
     28          1           0       -0.906371    2.057880    1.175611
     29          1           0       -5.411810   -1.697551   -0.669000
     30          1           0       -6.833126    0.263159   -0.047444
     31          1           0       -0.650215   -2.888479   -0.797996
     32          1           0       -0.647868   -1.861557   -2.254252
     33          1           0       -2.133269   -2.028071   -1.268105
     34          1           0        1.728916   -2.222538   -1.031368
     35          1           0        3.792504   -2.506432   -2.050856
     36          1           0        3.656523   -3.397571   -0.504706
     37          1           0        5.263912   -2.929543   -1.129497
 ---------------------------------------------------------------------
                    Distance matrix (angstroms):
                    1          2          3          4          5
     1  C    0.000000
     2  O    1.415673   0.000000
     3  C    2.377837   1.365383   0.000000
     4  C    2.819860   2.439190   1.381018   0.000000
     5  C    4.233626   3.702386   2.412743   1.415444   0.000000
     6  C    5.344850   5.021709   3.791367   2.603887   1.413660
     7  C    6.494083   5.952166   4.620243   3.676429   2.275411
     8  C    7.856193   7.385074   6.063659   5.058302   3.688038
     9  N    8.881435   8.266873   6.911868   6.063992   4.654789
    10  C   10.152919   9.594384   8.246020   7.341525   5.944484
    11  C   10.621793  10.225897   8.914630   7.862662   6.524712
    12  C    9.767190   9.529606   8.279771   7.105712   5.868631
    13  N   10.290053  10.218494   9.043729   7.781504   6.671502
    14  S    9.156568   9.262095   8.202848   6.868350   5.962910
    15  N    7.787849   7.760627   6.639779   5.337784   4.346605
    16  C    8.327530   8.084789   6.844246   5.659746   4.437971
    17  N    6.331897   5.509203   4.145200   3.601235   2.272741
    18  C    7.496883   6.511088   5.185468   4.894651   3.660048
    19  C    5.040726   4.146630   2.787309   2.445489   1.415779
    20  C    4.835126   3.647479   2.461867   2.855745   2.466825
    21  C    3.662324   2.356471   1.439724   2.448552   2.802450
    22  O    3.977472   2.563133   2.353921   3.633009   4.157030
    23  C    5.390601   3.978075   3.665213   4.825537   5.056601
    24  H    1.091682   2.011042   3.258023   3.887469   5.294346
    25  H    1.098795   2.087204   2.705198   2.808793   4.162935
    26  H    1.098794   2.087275   2.705994   2.810298   4.163492
    27  H    2.532225   2.733480   2.149791   1.083694   2.168302
    28  H    5.524636   5.472266   4.387371   3.051654   2.236429
    29  H   10.928388  10.272157   8.912039   8.114659   6.705336
    30  H   11.689829  11.307567   9.997271   8.939885   7.606829
    31  H    7.594925   6.512589   5.248667   5.155271   4.058244
    32  H    7.610638   6.562657   5.293011   5.146019   4.029041
    33  H    8.382947   7.475731   6.127799   5.680313   4.344841
    34  H    5.786797   4.511455   3.449214   3.938088   3.448896
    35  H    5.910533   4.517097   4.045253   5.070342   5.121337
    36  H    5.910773   4.516630   4.044853   5.070711   5.122472
    37  H    5.722483   4.362504   4.363083   5.634854   6.026001
                    6          7          8          9         10
     6  C    0.000000
     7  C    1.394889   0.000000
     8  C    2.545846   1.452156   0.000000
     9  N    3.714587   2.410795   1.328713   0.000000
    10  C    4.883640   3.677333   2.349498   1.362789   0.000000
    11  C    5.280369   4.309024   2.857521   2.431501   1.370640
    12  C    4.508206   3.851082   2.507964   2.793318   2.367148
    13  N    5.263877   4.881010   3.680552   4.124634   3.642377
    14  S    4.580824   4.640003   3.841857   4.733458   4.693591
    15  N    2.954009   3.045250   2.510360   3.660533   4.064270
    16  C    3.066318   2.542073   1.459917   2.394414   2.736661
    17  N    2.267983   1.407974   2.538245   2.935755   4.297102
    18  C    3.694922   2.595995   3.184698   2.955966   4.185351
    19  C    2.267845   2.253422   3.654498   4.262989   5.623337
    20  C    3.613417   3.631550   4.985227   5.426822   6.784444
    21  C    4.184613   4.599148   6.030460   6.637093   7.999729
    22  O    5.544244   5.916847   7.330261   7.849489   9.209375
    23  C    6.352699   6.441750   7.763887   8.062652   9.390210
    24  H    6.433365   7.563643   8.937432   9.943584  11.225623
    25  H    5.136592   6.343524   7.642237   8.690047   9.919559
    26  H    5.132822   6.342957   7.652448   8.753619   9.988099
    27  H    2.936114   4.224786   5.481538   6.612372   7.812377
    28  H    1.078054   2.194627   2.890565   4.185109   5.166500
    29  H    5.765869   4.475431   3.285747   2.065156   1.087983
    30  H    6.352525   5.391331   3.940412   3.411954   2.158270
    31  H    4.305042   3.336126   3.979999   3.654463   4.825005
    32  H    4.211390   3.239413   3.868177   3.687991   4.838500
    33  H    4.040810   2.721948   2.770183   2.144219   3.228767
    34  H    4.438307   4.162575   5.370110   5.562432   6.878373
    35  H    6.328611   6.283034   7.544551   7.782247   9.083282
    36  H    6.333790   6.285661   7.536485   7.712732   9.010066
    37  H    7.360706   7.513176   8.848122   9.152691  10.478222
                   11         12         13         14         15
    11  C    0.000000
    12  C    1.419526   0.000000
    13  N    2.464194   1.338307   0.000000
    14  S    3.793476   2.393742   1.645844   0.000000
    15  N    3.636385   2.326788   2.519263   1.645191   0.000000
    16  C    2.480155   1.451534   2.339052   2.399033   1.334353
    17  N    5.228891   5.043615   6.174192   6.032527   4.443231
    18  C    5.363107   5.543595   6.797899   6.952733   5.471093
    19  C    6.466666   6.103506   7.111952   6.694812   5.050877
    20  C    7.736278   7.466308   8.504156   8.090791   6.446067
    21  C    8.856680   8.436103   9.364004   8.744668   7.115960
    22  O   10.129516   9.764416  10.713645  10.100333   8.472874
    23  C   10.442620  10.259641  11.315557  10.876504   9.232585
    24  H   11.710861  10.858138  11.368878  10.209099   8.864268
    25  H   10.331051   9.448910   9.928123   8.784801   7.469248
    26  H   10.366497   9.431349   9.870310   8.655180   7.351764
    27  H    8.167101   7.255174   7.759691   6.661875   5.263764
    28  H    5.287349   4.278357   4.783001   3.841755   2.325538
    29  H    2.133803   3.370369   4.573349   5.739448   5.151518
    30  H    1.083689   2.187388   2.783549   4.343176   4.511876
    31  H    6.068496   6.330999   7.605170   7.782322   6.289400
    32  H    5.979376   6.142353   7.357491   7.465646   5.993729
    33  H    4.483488   4.869192   6.175392   6.565119   5.227003
    34  H    7.960405   7.874068   9.002438   8.755148   7.124806
    35  H   10.155135  10.021655  11.098354  10.720529   9.089276
    36  H   10.121470  10.040904  11.152726  10.828430   9.187334
    37  H   11.533782  11.340529  12.382600  11.902596  10.261146
                   16         17         18         19         20
    16  C    0.000000
    17  N    3.855156   0.000000
    18  C    4.622310   1.457119   0.000000
    19  C    4.777214   1.374850   2.471602   0.000000
    20  C    6.166761   2.510490   3.028263   1.406018   0.000000
    21  C    7.059252   3.714067   4.405188   2.392774   1.387813
    22  O    8.401333   4.925183   5.385709   3.675784   2.431872
    23  C    8.978193   5.239387   5.313299   4.218129   2.815012
    24  H    9.418760   7.335802   8.440385   6.012632   5.648458
    25  H    8.039804   6.316010   7.559799   5.102894   5.077875
    26  H    7.998865   6.321979   7.538262   5.106667   5.078467
    27  H    5.824361   4.441008   5.812636   3.427382   3.939408
    28  H    2.873278   3.305074   4.695912   3.317153   4.617640
    29  H    3.822134   4.835587   4.407408   6.199086   7.230095
    30  H    3.473524   6.277779   6.312080   7.535586   8.787219
    31  H    5.436198   2.096320   1.096269   2.757505   2.945550
    32  H    5.221175   2.106967   1.097532   2.801189   3.076672
    33  H    4.182307   2.080694   1.085683   3.350310   4.081823
    34  H    6.675659   2.835324   2.797955   2.173069   1.082345
    35  H    8.779683   5.032468   4.939363   4.154918   2.806855
    36  H    8.819626   5.026420   4.973119   4.151346   2.805341
    37  H   10.046753   6.327822   6.387405   5.276340   3.881698
                   21         22         23         24         25
    21  C    0.000000
    22  O    1.359869   0.000000
    23  C    2.381249   1.416944   0.000000
    24  H    4.366195   4.370757   5.729560   0.000000
    25  H    4.040188   4.515332   5.910691   1.787165   0.000000
    26  H    4.039886   4.513451   5.908589   1.787128   1.788578
    27  H    3.439490   4.502877   5.781815   3.615789   2.326049
    28  H    5.027461   6.372310   7.289294   6.610566   5.206414
    29  H    8.517488   9.651628   9.682946  11.984368  10.717296
    30  H    9.926906  11.190305  11.467009  12.779754  11.381031
    31  H    4.301034   5.123091   4.882908   8.479903   7.624361
    32  H    4.405315   5.260958   5.072698   8.507981   7.826989
    33  H    5.445441   6.461262   6.384384   9.362907   8.377235
    34  H    2.155404   2.723007   2.522677   6.521583   6.069053
    35  H    2.711569   2.087155   1.098423   6.317300   6.507310
    36  H    2.710853   2.087143   1.098414   6.317099   6.257157
    37  H    3.257018   2.011050   1.091405   5.861289   6.311206
                   26         27         28         29         30
    26  H    0.000000
    27  H    2.325530   0.000000
    28  H    5.201761   2.995059   0.000000
    29  H   10.817962   8.668464   6.148563   0.000000
    30  H   11.424989   9.222884   6.312156   2.500170   0.000000
    31  H    7.790548   6.132026   5.331717   4.909963   6.980296
    32  H    7.582565   6.095598   5.214669   5.023452   6.902307
    33  H    8.376733   6.510489   4.916505   3.349179   5.369209
    34  H    6.068769   5.021747   5.489761   7.169163   8.969691
    35  H    6.254586   6.064178   7.302223   9.342548  11.161913
    36  H    6.506072   6.065847   7.307901   9.227770  11.119477
    37  H    6.308596   6.512776   8.261980  10.756436  12.557966
                   31         32         33         34         35
    31  H    0.000000
    32  H    1.781925   0.000000
    33  H    1.777851   1.790707   0.000000
    34  H    2.481573   2.697194   3.874317   0.000000
    35  H    4.631778   4.491563   5.996358   2.319126   0.000000
    36  H    4.346629   4.893673   5.998333   2.318134   1.789748
    37  H    5.923553   6.111858   7.453198   3.606339   1.786888
                   36         37
    36  H    0.000000
    37  H    1.786928   0.000000
 Symmetry turned off by external request.
 Stoichiometry    C16H14N4O2S(1+,2)
 Framework group  C1[X(C16H14N4O2S)]
 Deg. of freedom   105
 Full point group                 C1      NOp   1
 Rotational constants (GHZ):           0.5325295           0.1156988           0.0956216
 Leave Link  202 at Sat Jun  1 12:49:29 2024, MaxMem=   104857600 cpu:               0.2 elap:               0.1
 (Enter /software/spackages_v0_21_prod/apps/linux-ubuntu22.04-zen2/gcc-13.2.0/gaussian_sse4-16-C-g6jkfwqig4o4stofyyxv7ma3rrfxhpfk/g16/l301.exe)
 Standard basis: 6-31G(d) (6D, 7F)
 Ernie: Thresh=  0.10000D-02 Tol=  0.10000D-05 Strict=F.
   377 basis functions,   724 primitive gaussians,   377 cartesian basis functions
    85 alpha electrons       84 beta electrons
       nuclear repulsion energy      1940.6079876229 Hartrees.
 IExCor=  402 DFT=T Ex+Corr=B3LYP ExCW=0 ScaHFX=  0.200000
 ScaDFX=  0.800000  0.720000  1.000000  0.810000 ScalE2=  1.000000  1.000000
 IRadAn=      5 IRanWt=     -1 IRanGd=            0 ICorTp=0 IEmpDi=  4
 NAtoms=   37 NActive=   37 NUniq=   37 SFac= 1.00D+00 NAtFMM=   60 NAOKFM=F Big=F
 Integral buffers will be    131072 words long.
 Raffenetti 2 integral format.
 Two-electron integral symmetry is turned off.
 Leave Link  301 at Sat Jun  1 12:49:30 2024, MaxMem=   104857600 cpu:               0.2 elap:               0.1
 (Enter /software/spackages_v0_21_prod/apps/linux-ubuntu22.04-zen2/gcc-13.2.0/gaussian_sse4-16-C-g6jkfwqig4o4stofyyxv7ma3rrfxhpfk/g16/l302.exe)
 NPDir=0 NMtPBC=     1 NCelOv=     1 NCel=       1 NClECP=     1 NCelD=      1
         NCelK=      1 NCelE2=     1 NClLst=     1 CellRange=     0.0.
 One-electron integrals computed using PRISM.
 NBasis=   377 RedAO= T EigKep=  3.09D-04  NBF=   377
 NBsUse=   377 1.00D-06 EigRej= -1.00D+00 NBFU=   377
 Precomputing XC quadrature grid using
 IXCGrd= 4 IRadAn=           5 IRanWt=          -1 IRanGd=           0 AccXCQ= 0.00D+00.
 Generated NRdTot=       0 NPtTot=           0 NUsed=           0 NTot=          32
 NSgBfM=   372   372   372   372   372 MxSgAt=    37 MxSgA2=    37.
 Leave Link  302 at Sat Jun  1 12:49:32 2024, MaxMem=   104857600 cpu:               4.2 elap:               2.3
 (Enter /software/spackages_v0_21_prod/apps/linux-ubuntu22.04-zen2/gcc-13.2.0/gaussian_sse4-16-C-g6jkfwqig4o4stofyyxv7ma3rrfxhpfk/g16/l303.exe)
 DipDrv:  MaxL=1.
 Leave Link  303 at Sat Jun  1 12:49:32 2024, MaxMem=   104857600 cpu:               0.4 elap:               0.2
 (Enter /software/spackages_v0_21_prod/apps/linux-ubuntu22.04-zen2/gcc-13.2.0/gaussian_sse4-16-C-g6jkfwqig4o4stofyyxv7ma3rrfxhpfk/g16/l401.exe)
 ExpMin= 1.17D-01 ExpMax= 2.19D+04 ExpMxC= 3.30D+03 IAcc=3 IRadAn=         5 AccDes= 0.00D+00
 Harris functional with IExCor=  402 and IRadAn=       5 diagonalized for initial guess.
 HarFok:  IExCor=  402 AccDes= 0.00D+00 IRadAn=         5 IDoV= 1 UseB2=F ITyADJ=14
 ICtDFT=  3500011 ScaDFX=  1.000000  1.000000  1.000000  1.000000
 FoFCou: FMM=F IPFlag=           0 FMFlag=      100000 FMFlg1=           0
         NFxFlg=           0 DoJE=T BraDBF=F KetDBF=T FulRan=T
         wScrn=  0.000000 ICntrl=       500 IOpCl=  0 I1Cent=   200000004 NGrid=           0
         NMat0=    1 NMatS0=      1 NMatT0=    0 NMatD0=    1 NMtDS0=    0 NMtDT0=    0
 Symmetry not used in FoFCou.
 Harris En= -1385.38058058298    
 JPrj=0 DoOrth=F DoCkMO=F.
 Initial guess <Sx>= 0.0000 <Sy>= 0.0000 <Sz>= 0.5000 <S**2>= 0.7500 S= 0.5000
 Leave Link  401 at Sat Jun  1 12:49:42 2024, MaxMem=   104857600 cpu:              19.2 elap:               9.7
 (Enter /software/spackages_v0_21_prod/apps/linux-ubuntu22.04-zen2/gcc-13.2.0/gaussian_sse4-16-C-g6jkfwqig4o4stofyyxv7ma3rrfxhpfk/g16/l502.exe)
 Two-electron integral symmetry not used.
 UHF open shell SCF:
 Using DIIS extrapolation, IDIIS=  1040.
 NGot=   104857600 LenX=   104567031 LenY=   104424461
 Requested convergence on RMS density matrix=1.00D-08 within 128 cycles.
 Requested convergence on MAX density matrix=1.00D-06.
 Requested convergence on             energy=1.00D-06.
 No special actions if energy rises.
 Fock matrices will be formed incrementally for  20 cycles.
 Integral accuracy reduced to 1.0D-05 until final iterations.

 Cycle   1  Pass 0  IDiag  1:
 FoFJK:  IHMeth= 1 ICntrl=       0 DoSepK=F KAlg= 0 I1Cent=           0 FoldK=F
 IRaf= 710000000 NMat=       1 IRICut=       1 DoRegI=T DoRafI=F ISym2E= 0 IDoP0=0 IntGTp=1.
 FoFCou: FMM=F IPFlag=           0 FMFlag=      100000 FMFlg1=           0
         NFxFlg=           0 DoJE=F BraDBF=F KetDBF=F FulRan=T
         wScrn=  0.000000 ICntrl=         0 IOpCl=  1 I1Cent=           0 NGrid=           0
         NMat0=    1 NMatS0=      1 NMatT0=    0 NMatD0=    1 NMtDS0=    0 NMtDT0=    0
 Symmetry not used in FoFCou.
 E= -1384.99923980398    
 DIIS: error= 3.18D-02 at cycle   1 NSaved=   1.
 NSaved= 1 IEnMin= 1 EnMin= -1384.99923980398     IErMin= 1 ErrMin= 3.18D-02
 ErrMax= 3.18D-02  0.00D+00 EMaxC= 1.00D-01 BMatC= 1.89D+00 BMatP= 1.89D+00
 IDIUse=3 WtCom= 6.82D-01 WtEn= 3.18D-01
 Coeff-Com:  0.100D+01
 Coeff-En:   0.100D+01
 Coeff:      0.100D+01
 Gap=     0.094 Goal=   None    Shift=    0.000
 Gap=     0.002 Goal=   None    Shift=    0.000
 GapD=    0.002 DampG=0.250 DampE=0.500 DampFc=0.2500 IDamp=-1.
 Damping current iteration by 2.50D-01
 RMSDP=5.85D-03 MaxDP=5.08D-01              OVMax= 4.63D-01

 Cycle   2  Pass 0  IDiag  1:
 RMSU=  1.45D-03    CP:  9.90D-01
 E= -1385.15980494821     Delta-E=       -0.160565144231 Rises=F Damp=T
 DIIS: error= 1.68D-02 at cycle   2 NSaved=   2.
 NSaved= 2 IEnMin= 2 EnMin= -1385.15980494821     IErMin= 2 ErrMin= 1.68D-02
 ErrMax= 1.68D-02  0.00D+00 EMaxC= 1.00D-01 BMatC= 4.24D-01 BMatP= 1.89D+00
 IDIUse=3 WtCom= 8.32D-01 WtEn= 1.68D-01
 Coeff-Com: -0.532D+00 0.153D+01
 Coeff-En:   0.000D+00 0.100D+01
 Coeff:     -0.443D+00 0.144D+01
 Gap=     0.190 Goal=   None    Shift=    0.000
 Gap=     0.137 Goal=   None    Shift=    0.000
 RMSDP=2.25D-03 MaxDP=7.93D-02 DE=-1.61D-01 OVMax= 4.99D-01

 Cycle   3  Pass 0  IDiag  1:
 RMSU=  2.20D-03    CP:  9.67D-01  1.06D+00
 E= -1385.35405115831     Delta-E=       -0.194246210098 Rises=F Damp=F
 DIIS: error= 1.77D-02 at cycle   3 NSaved=   3.
 NSaved= 3 IEnMin= 3 EnMin= -1385.35405115831     IErMin= 2 ErrMin= 1.68D-02
 ErrMax= 1.77D-02  0.00D+00 EMaxC= 1.00D-01 BMatC= 4.53D-01 BMatP= 4.24D-01
 IDIUse=3 WtCom= 8.23D-01 WtEn= 1.77D-01
 Coeff-Com: -0.396D+00 0.995D+00 0.401D+00
 Coeff-En:   0.000D+00 0.000D+00 0.100D+01
 Coeff:     -0.326D+00 0.819D+00 0.507D+00
 Gap=     0.155 Goal=   None    Shift=    0.000
 Gap=     0.050 Goal=   None    Shift=    0.000
 RMSDP=1.85D-03 MaxDP=8.65D-02 DE=-1.94D-01 OVMax= 3.40D-01

 Cycle   4  Pass 0  IDiag  1:
 RMSU=  1.34D-03    CP:  9.68D-01  1.36D+00  4.57D-01
 E= -1385.43586193747     Delta-E=       -0.081810779157 Rises=F Damp=F
 DIIS: error= 1.09D-02 at cycle   4 NSaved=   4.
 NSaved= 4 IEnMin= 4 EnMin= -1385.43586193747     IErMin= 4 ErrMin= 1.09D-02
 ErrMax= 1.09D-02  0.00D+00 EMaxC= 1.00D-01 BMatC= 1.97D-01 BMatP= 4.24D-01
 IDIUse=3 WtCom= 8.91D-01 WtEn= 1.09D-01
 Coeff-Com: -0.123D+00 0.297D+00 0.369D+00 0.458D+00
 Coeff-En:   0.000D+00 0.000D+00 0.339D+00 0.661D+00
 Coeff:     -0.110D+00 0.264D+00 0.366D+00 0.480D+00
 Gap=     0.121 Goal=   None    Shift=    0.000
 Gap=     0.099 Goal=   None    Shift=    0.000
 RMSDP=8.79D-04 MaxDP=3.18D-02 DE=-8.18D-02 OVMax= 2.02D-01

 Cycle   5  Pass 0  IDiag  1:
 RMSU=  4.00D-04    CP:  9.69D-01  1.27D+00  6.72D-01  5.48D-01
 E= -1385.48918647299     Delta-E=       -0.053324535518 Rises=F Damp=F
 DIIS: error= 2.94D-03 at cycle   5 NSaved=   5.
 NSaved= 5 IEnMin= 5 EnMin= -1385.48918647299     IErMin= 5 ErrMin= 2.94D-03
 ErrMax= 2.94D-03  0.00D+00 EMaxC= 1.00D-01 BMatC= 1.72D-02 BMatP= 1.97D-01
 IDIUse=3 WtCom= 9.71D-01 WtEn= 2.94D-02
 Coeff-Com: -0.211D-01 0.501D-01 0.165D+00 0.308D+00 0.499D+00
 Coeff-En:   0.000D+00 0.000D+00 0.000D+00 0.507D-01 0.949D+00
 Coeff:     -0.205D-01 0.486D-01 0.160D+00 0.300D+00 0.512D+00
 Gap=     0.120 Goal=   None    Shift=    0.000
 Gap=     0.046 Goal=   None    Shift=    0.000
 RMSDP=2.61D-04 MaxDP=1.05D-02 DE=-5.33D-02 OVMax= 5.70D-02

 Cycle   6  Pass 0  IDiag  1:
 RMSU=  1.71D-04    CP:  9.68D-01  1.26D+00  6.49D-01  6.33D-01  6.24D-01
 E= -1385.49313032592     Delta-E=       -0.003943852933 Rises=F Damp=F
 DIIS: error= 1.22D-03 at cycle   6 NSaved=   6.
 NSaved= 6 IEnMin= 6 EnMin= -1385.49313032592     IErMin= 6 ErrMin= 1.22D-03
 ErrMax= 1.22D-03  0.00D+00 EMaxC= 1.00D-01 BMatC= 3.20D-03 BMatP= 1.72D-02
 IDIUse=3 WtCom= 9.88D-01 WtEn= 1.22D-02
 Coeff-Com:  0.850D-02-0.183D-01 0.266D-01 0.943D-01 0.343D+00 0.546D+00
 Coeff-En:   0.000D+00 0.000D+00 0.000D+00 0.000D+00 0.154D+00 0.846D+00
 Coeff:      0.840D-02-0.181D-01 0.263D-01 0.931D-01 0.340D+00 0.550D+00
 Gap=     0.120 Goal=   None    Shift=    0.000
 Gap=     0.050 Goal=   None    Shift=    0.000
 RMSDP=1.12D-04 MaxDP=4.80D-03 DE=-3.94D-03 OVMax= 1.72D-02

 Cycle   7  Pass 0  IDiag  1:
 RMSU=  7.69D-05    CP:  9.68D-01  1.25D+00  6.54D-01  6.37D-01  7.50D-01
                    CP:  6.41D-01
 E= -1385.49393375714     Delta-E=       -0.000803431219 Rises=F Damp=F
 DIIS: error= 3.97D-04 at cycle   7 NSaved=   7.
 NSaved= 7 IEnMin= 7 EnMin= -1385.49393375714     IErMin= 7 ErrMin= 3.97D-04
 ErrMax= 3.97D-04  0.00D+00 EMaxC= 1.00D-01 BMatC= 5.12D-04 BMatP= 3.20D-03
 IDIUse=3 WtCom= 9.96D-01 WtEn= 3.97D-03
 Coeff-Com:  0.450D-02-0.106D-01-0.563D-02 0.110D-01 0.136D+00 0.345D+00
 Coeff-Com:  0.519D+00
 Coeff-En:   0.000D+00 0.000D+00 0.000D+00 0.000D+00 0.000D+00 0.512D-01
 Coeff-En:   0.949D+00
 Coeff:      0.448D-02-0.105D-01-0.561D-02 0.110D-01 0.135D+00 0.344D+00
 Coeff:      0.521D+00
 Gap=     0.121 Goal=   None    Shift=    0.000
 Gap=     0.051 Goal=   None    Shift=    0.000
 RMSDP=4.55D-05 MaxDP=2.18D-03 DE=-8.03D-04 OVMax= 7.59D-03

 Cycle   8  Pass 0  IDiag  1:
 RMSU=  3.67D-05    CP:  9.68D-01  1.26D+00  6.54D-01  6.37D-01  7.55D-01
                    CP:  7.84D-01  8.63D-01
 E= -1385.49409954000     Delta-E=       -0.000165782859 Rises=F Damp=F
 DIIS: error= 1.79D-04 at cycle   8 NSaved=   8.
 NSaved= 8 IEnMin= 8 EnMin= -1385.49409954000     IErMin= 8 ErrMin= 1.79D-04
 ErrMax= 1.79D-04  0.00D+00 EMaxC= 1.00D-01 BMatC= 8.63D-05 BMatP= 5.12D-04
 IDIUse=3 WtCom= 9.98D-01 WtEn= 1.79D-03
 Coeff-Com:  0.575D-03-0.170D-02-0.742D-02-0.121D-01 0.705D-02 0.741D-01
 Coeff-Com:  0.291D+00 0.648D+00
 Coeff-En:   0.000D+00 0.000D+00 0.000D+00 0.000D+00 0.000D+00 0.000D+00
 Coeff-En:   0.000D+00 0.100D+01
 Coeff:      0.574D-03-0.170D-02-0.741D-02-0.121D-01 0.704D-02 0.740D-01
 Coeff:      0.291D+00 0.649D+00
 Gap=     0.121 Goal=   None    Shift=    0.000
 Gap=     0.052 Goal=   None    Shift=    0.000
 RMSDP=2.62D-05 MaxDP=1.44D-03 DE=-1.66D-04 OVMax= 5.28D-03

 Cycle   9  Pass 0  IDiag  1:
 RMSU=  2.06D-05    CP:  9.68D-01  1.26D+00  6.55D-01  6.38D-01  7.69D-01
                    CP:  8.13D-01  1.04D+00  9.19D-01
 E= -1385.49414449546     Delta-E=       -0.000044955462 Rises=F Damp=F
 DIIS: error= 1.29D-04 at cycle   9 NSaved=   9.
 NSaved= 9 IEnMin= 9 EnMin= -1385.49414449546     IErMin= 9 ErrMin= 1.29D-04
 ErrMax= 1.29D-04  0.00D+00 EMaxC= 1.00D-01 BMatC= 3.88D-05 BMatP= 8.63D-05
 IDIUse=3 WtCom= 9.99D-01 WtEn= 1.29D-03
 Coeff-Com: -0.116D-02 0.269D-02-0.308D-02-0.130D-01-0.493D-01-0.878D-01
 Coeff-Com:  0.858D-02 0.463D+00 0.680D+00
 Coeff-En:   0.000D+00 0.000D+00 0.000D+00 0.000D+00 0.000D+00 0.000D+00
 Coeff-En:   0.000D+00 0.000D+00 0.100D+01
 Coeff:     -0.116D-02 0.269D-02-0.308D-02-0.130D-01-0.492D-01-0.877D-01
 Coeff:      0.857D-02 0.463D+00 0.680D+00
 Gap=     0.121 Goal=   None    Shift=    0.000
 Gap=     0.053 Goal=   None    Shift=    0.000
 RMSDP=2.05D-05 MaxDP=1.47D-03 DE=-4.50D-05 OVMax= 3.42D-03

 Cycle  10  Pass 0  IDiag  1:
 RMSU=  1.28D-05    CP:  9.68D-01  1.26D+00  6.55D-01  6.39D-01  7.78D-01
                    CP:  8.49D-01  1.16D+00  1.22D+00  1.08D+00
 E= -1385.49416908638     Delta-E=       -0.000024590922 Rises=F Damp=F
 DIIS: error= 9.25D-05 at cycle  10 NSaved=  10.
 NSaved=10 IEnMin=10 EnMin= -1385.49416908638     IErMin=10 ErrMin= 9.25D-05
 ErrMax= 9.25D-05  0.00D+00 EMaxC= 1.00D-01 BMatC= 1.66D-05 BMatP= 3.88D-05
 IDIUse=1 WtCom= 1.00D+00 WtEn= 0.00D+00
 Coeff-Com: -0.971D-03 0.245D-02 0.726D-03-0.429D-02-0.392D-01-0.937D-01
 Coeff-Com: -0.102D+00 0.983D-01 0.506D+00 0.633D+00
 Coeff:     -0.971D-03 0.245D-02 0.726D-03-0.429D-02-0.392D-01-0.937D-01
 Coeff:     -0.102D+00 0.983D-01 0.506D+00 0.633D+00
 Gap=     0.121 Goal=   None    Shift=    0.000
 Gap=     0.053 Goal=   None    Shift=    0.000
 RMSDP=1.42D-05 MaxDP=1.15D-03 DE=-2.46D-05 OVMax= 3.42D-03

 Cycle  11  Pass 0  IDiag  1:
 RMSU=  8.88D-06    CP:  9.68D-01  1.26D+00  6.55D-01  6.40D-01  7.80D-01
                    CP:  8.65D-01  1.24D+00  1.37D+00  1.37D+00  9.16D-01
 E= -1385.49417866905     Delta-E=       -0.000009582666 Rises=F Damp=F
 DIIS: error= 7.53D-05 at cycle  11 NSaved=  11.
 NSaved=11 IEnMin=11 EnMin= -1385.49417866905     IErMin=11 ErrMin= 7.53D-05
 ErrMax= 7.53D-05  0.00D+00 EMaxC= 1.00D-01 BMatC= 8.38D-06 BMatP= 1.66D-05
 IDIUse=1 WtCom= 1.00D+00 WtEn= 0.00D+00
 Coeff-Com: -0.235D-03 0.759D-03 0.166D-02 0.105D-02-0.159D-01-0.490D-01
 Coeff-Com: -0.856D-01-0.700D-01 0.199D+00 0.515D+00 0.504D+00
 Coeff:     -0.235D-03 0.759D-03 0.166D-02 0.105D-02-0.159D-01-0.490D-01
 Coeff:     -0.856D-01-0.700D-01 0.199D+00 0.515D+00 0.504D+00
 Gap=     0.121 Goal=   None    Shift=    0.000
 Gap=     0.053 Goal=   None    Shift=    0.000
 RMSDP=8.18D-06 MaxDP=6.40D-04 DE=-9.58D-06 OVMax= 1.71D-03

 Initial convergence to 1.0D-05 achieved.  Increase integral accuracy.
 Cycle  12  Pass 1  IDiag  1:
 E= -1385.49415534970     Delta-E=        0.000023319352 Rises=F Damp=F
 DIIS: error= 1.17D-04 at cycle   1 NSaved=   1.
 NSaved= 1 IEnMin= 1 EnMin= -1385.49415534970     IErMin= 1 ErrMin= 1.17D-04
 ErrMax= 1.17D-04  0.00D+00 EMaxC= 1.00D-01 BMatC= 5.70D-06 BMatP= 5.70D-06
 IDIUse=3 WtCom= 9.99D-01 WtEn= 1.17D-03
 Coeff-Com:  0.100D+01
 Coeff-En:   0.100D+01
 Coeff:      0.100D+01
 Gap=     0.121 Goal=   None    Shift=    0.000
 Gap=     0.053 Goal=   None    Shift=    0.000
 RMSDP=8.18D-06 MaxDP=6.40D-04 DE= 2.33D-05 OVMax= 1.67D-03

 Cycle  13  Pass 1  IDiag  1:
 RMSU=  5.64D-05    CP:  1.00D+00
 E= -1385.49415558086     Delta-E=       -0.000000231159 Rises=F Damp=F
 DIIS: error= 7.06D-05 at cycle   2 NSaved=   2.
 NSaved= 2 IEnMin= 2 EnMin= -1385.49415558086     IErMin= 2 ErrMin= 7.06D-05
 ErrMax= 7.06D-05  0.00D+00 EMaxC= 1.00D-01 BMatC= 8.86D-06 BMatP= 5.70D-06
 IDIUse=1 WtCom= 1.00D+00 WtEn= 0.00D+00
 Coeff-Com:  0.579D+00 0.421D+00
 Coeff:      0.579D+00 0.421D+00
 Gap=     0.121 Goal=   None    Shift=    0.000
 Gap=     0.053 Goal=   None    Shift=    0.000
 RMSDP=6.97D-06 MaxDP=4.44D-04 DE=-2.31D-07 OVMax= 1.09D-03

 Cycle  14  Pass 1  IDiag  1:
 RMSU=  6.97D-06    CP:  1.00D+00  9.96D-01
 E= -1385.49415721886     Delta-E=       -0.000001638004 Rises=F Damp=F
 DIIS: error= 4.76D-05 at cycle   3 NSaved=   3.
 NSaved= 3 IEnMin= 3 EnMin= -1385.49415721886     IErMin= 3 ErrMin= 4.76D-05
 ErrMax= 4.76D-05  0.00D+00 EMaxC= 1.00D-01 BMatC= 3.78D-06 BMatP= 5.70D-06
 IDIUse=1 WtCom= 1.00D+00 WtEn= 0.00D+00
 Coeff-Com:  0.314D-01 0.382D+00 0.587D+00
 Coeff:      0.314D-01 0.382D+00 0.587D+00
 Gap=     0.121 Goal=   None    Shift=    0.000
 Gap=     0.053 Goal=   None    Shift=    0.000
 RMSDP=3.72D-06 MaxDP=3.51D-04 DE=-1.64D-06 OVMax= 9.33D-04

 Cycle  15  Pass 1  IDiag  1:
 RMSU=  2.90D-06    CP:  1.00D+00  1.01D+00  6.83D-01
 E= -1385.49415847032     Delta-E=       -0.000001251456 Rises=F Damp=F
 DIIS: error= 1.56D-05 at cycle   4 NSaved=   4.
 NSaved= 4 IEnMin= 4 EnMin= -1385.49415847032     IErMin= 4 ErrMin= 1.56D-05
 ErrMax= 1.56D-05  0.00D+00 EMaxC= 1.00D-01 BMatC= 5.89D-07 BMatP= 3.78D-06
 IDIUse=1 WtCom= 1.00D+00 WtEn= 0.00D+00
 Coeff-Com: -0.416D-01 0.210D+00 0.386D+00 0.445D+00
 Coeff:     -0.416D-01 0.210D+00 0.386D+00 0.445D+00
 Gap=     0.121 Goal=   None    Shift=    0.000
 Gap=     0.053 Goal=   None    Shift=    0.000
 RMSDP=1.57D-06 MaxDP=1.40D-04 DE=-1.25D-06 OVMax= 2.98D-04

 Cycle  16  Pass 1  IDiag  1:
 RMSU=  1.51D-06    CP:  1.00D+00  1.01D+00  7.22D-01  1.10D+00
 E= -1385.49415874497     Delta-E=       -0.000000274655 Rises=F Damp=F
 DIIS: error= 9.07D-06 at cycle   5 NSaved=   5.
 NSaved= 5 IEnMin= 5 EnMin= -1385.49415874497     IErMin= 5 ErrMin= 9.07D-06
 ErrMax= 9.07D-06  0.00D+00 EMaxC= 1.00D-01 BMatC= 1.35D-07 BMatP= 5.89D-07
 IDIUse=1 WtCom= 1.00D+00 WtEn= 0.00D+00
 Coeff-Com: -0.326D-01-0.138D+00-0.194D+00 0.147D+00 0.122D+01
 Coeff:     -0.326D-01-0.138D+00-0.194D+00 0.147D+00 0.122D+01
 Gap=     0.121 Goal=   None    Shift=    0.000
 Gap=     0.053 Goal=   None    Shift=    0.000
 RMSDP=2.62D-06 MaxDP=1.97D-04 DE=-2.75D-07 OVMax= 6.42D-04

 Cycle  17  Pass 1  IDiag  1:
 RMSU=  1.00D-06    CP:  1.00D+00  1.02D+00  7.88D-01  1.84D+00  1.65D+00
 E= -1385.49415903322     Delta-E=       -0.000000288254 Rises=F Damp=F
 DIIS: error= 7.66D-06 at cycle   6 NSaved=   6.
 NSaved= 6 IEnMin= 6 EnMin= -1385.49415903322     IErMin= 6 ErrMin= 7.66D-06
 ErrMax= 7.66D-06  0.00D+00 EMaxC= 1.00D-01 BMatC= 1.18D-07 BMatP= 1.35D-07
 IDIUse=1 WtCom= 1.00D+00 WtEn= 0.00D+00
 Coeff-Com:  0.227D-03-0.293D+00-0.483D+00-0.199D+00 0.119D+01 0.784D+00
 Coeff:      0.227D-03-0.293D+00-0.483D+00-0.199D+00 0.119D+01 0.784D+00
 Gap=     0.121 Goal=   None    Shift=    0.000
 Gap=     0.053 Goal=   None    Shift=    0.000
 RMSDP=2.64D-06 MaxDP=2.04D-04 DE=-2.88D-07 OVMax= 6.66D-04

 Cycle  18  Pass 1  IDiag  1:
 RMSU=  4.75D-07    CP:  1.00D+00  1.02D+00  8.46D-01  2.57D+00  2.60D+00
                    CP:  9.44D-01
 E= -1385.49415917692     Delta-E=       -0.000000143696 Rises=F Damp=F
 DIIS: error= 2.09D-06 at cycle   7 NSaved=   7.
 NSaved= 7 IEnMin= 7 EnMin= -1385.49415917692     IErMin= 7 ErrMin= 2.09D-06
 ErrMax= 2.09D-06  0.00D+00 EMaxC= 1.00D-01 BMatC= 2.11D-08 BMatP= 1.18D-07
 IDIUse=1 WtCom= 1.00D+00 WtEn= 0.00D+00
 Coeff-Com:  0.422D-02-0.175D+00-0.293D+00-0.151D+00 0.635D+00 0.517D+00
 Coeff-Com:  0.462D+00
 Coeff:      0.422D-02-0.175D+00-0.293D+00-0.151D+00 0.635D+00 0.517D+00
 Coeff:      0.462D+00
 Gap=     0.121 Goal=   None    Shift=    0.000
 Gap=     0.053 Goal=   None    Shift=    0.000
 RMSDP=4.52D-07 MaxDP=3.32D-05 DE=-1.44D-07 OVMax= 1.07D-04

 Cycle  19  Pass 1  IDiag  1:
 RMSU=  2.22D-07    CP:  1.00D+00  1.02D+00  8.61D-01  2.68D+00  2.69D+00
                    CP:  1.01D+00  6.75D-01
 E= -1385.49415918503     Delta-E=       -0.000000008114 Rises=F Damp=F
 DIIS: error= 7.96D-07 at cycle   8 NSaved=   8.
 NSaved= 8 IEnMin= 8 EnMin= -1385.49415918503     IErMin= 8 ErrMin= 7.96D-07
 ErrMax= 7.96D-07  0.00D+00 EMaxC= 1.00D-01 BMatC= 1.58D-09 BMatP= 2.11D-08
 IDIUse=1 WtCom= 1.00D+00 WtEn= 0.00D+00
 Coeff-Com:  0.216D-02-0.543D-01-0.919D-01-0.532D-01 0.186D+00 0.166D+00
 Coeff-Com:  0.219D+00 0.626D+00
 Coeff:      0.216D-02-0.543D-01-0.919D-01-0.532D-01 0.186D+00 0.166D+00
 Coeff:      0.219D+00 0.626D+00
 Gap=     0.121 Goal=   None    Shift=    0.000
 Gap=     0.053 Goal=   None    Shift=    0.000
 RMSDP=1.21D-07 MaxDP=7.85D-06 DE=-8.11D-09 OVMax= 2.98D-05

 Cycle  20  Pass 1  IDiag  1:
 RMSU=  9.34D-08    CP:  1.00D+00  1.02D+00  8.61D-01  2.69D+00  2.71D+00
                    CP:  1.02D+00  8.02D-01  1.05D+00
 E= -1385.49415918576     Delta-E=       -0.000000000729 Rises=F Damp=F
 DIIS: error= 6.35D-07 at cycle   9 NSaved=   9.
 NSaved= 9 IEnMin= 9 EnMin= -1385.49415918576     IErMin= 9 ErrMin= 6.35D-07
 ErrMax= 6.35D-07  0.00D+00 EMaxC= 1.00D-01 BMatC= 9.26D-10 BMatP= 1.58D-09
 IDIUse=1 WtCom= 1.00D+00 WtEn= 0.00D+00
 Coeff-Com: -0.755D-03 0.567D-01 0.934D-01 0.436D-01-0.212D+00-0.163D+00
 Coeff-Com: -0.969D-01 0.510D+00 0.768D+00
 Coeff:     -0.755D-03 0.567D-01 0.934D-01 0.436D-01-0.212D+00-0.163D+00
 Coeff:     -0.969D-01 0.510D+00 0.768D+00
 Gap=     0.121 Goal=   None    Shift=    0.000
 Gap=     0.053 Goal=   None    Shift=    0.000
 RMSDP=1.09D-07 MaxDP=7.77D-06 DE=-7.29D-10 OVMax= 1.99D-05

 Cycle  21  Pass 1  IDiag  1:
 RMSU=  6.03D-08    CP:  1.00D+00  1.02D+00  8.62D-01  2.70D+00  2.72D+00
                    CP:  1.04D+00  8.74D-01  1.39D+00  7.88D-01
 E= -1385.49415918620     Delta-E=       -0.000000000437 Rises=F Damp=F
 DIIS: error= 3.16D-07 at cycle  10 NSaved=  10.
 NSaved=10 IEnMin=10 EnMin= -1385.49415918620     IErMin=10 ErrMin= 3.16D-07
 ErrMax= 3.16D-07  0.00D+00 EMaxC= 1.00D-01 BMatC= 3.23D-10 BMatP= 9.26D-10
 IDIUse=1 WtCom= 1.00D+00 WtEn= 0.00D+00
 Coeff-Com: -0.957D-03 0.508D-01 0.838D-01 0.417D-01-0.186D+00-0.148D+00
 Coeff-Com: -0.113D+00 0.234D+00 0.551D+00 0.487D+00
 Coeff:     -0.957D-03 0.508D-01 0.838D-01 0.417D-01-0.186D+00-0.148D+00
 Coeff:     -0.113D+00 0.234D+00 0.551D+00 0.487D+00
 Gap=     0.121 Goal=   None    Shift=    0.000
 Gap=     0.053 Goal=   None    Shift=    0.000
 RMSDP=4.04D-08 MaxDP=3.16D-06 DE=-4.37D-10 OVMax= 9.15D-06

 Cycle  22  Pass 1  IDiag  1:
 RMSU=  2.40D-08    CP:  1.00D+00  1.02D+00  8.61D-01  2.70D+00  2.72D+00
                    CP:  1.04D+00  8.99D-01  1.47D+00  1.02D+00  8.56D-01
 E= -1385.49415918633     Delta-E=       -0.000000000126 Rises=F Damp=F
 DIIS: error= 8.84D-08 at cycle  11 NSaved=  11.
 NSaved=11 IEnMin=11 EnMin= -1385.49415918633     IErMin=11 ErrMin= 8.84D-08
 ErrMax= 8.84D-08  0.00D+00 EMaxC= 1.00D-01 BMatC= 2.45D-11 BMatP= 3.23D-10
 IDIUse=1 WtCom= 1.00D+00 WtEn= 0.00D+00
 Coeff-Com: -0.361D-03 0.170D-01 0.279D-01 0.144D-01-0.618D-01-0.497D-01
 Coeff-Com: -0.411D-01 0.397D-01 0.155D+00 0.244D+00 0.655D+00
 Coeff:     -0.361D-03 0.170D-01 0.279D-01 0.144D-01-0.618D-01-0.497D-01
 Coeff:     -0.411D-01 0.397D-01 0.155D+00 0.244D+00 0.655D+00
 Gap=     0.121 Goal=   None    Shift=    0.000
 Gap=     0.053 Goal=   None    Shift=    0.000
 RMSDP=1.47D-08 MaxDP=1.06D-06 DE=-1.26D-10 OVMax= 2.46D-06

 Cycle  23  Pass 1  IDiag  1:
 RMSU=  1.18D-08    CP:  1.00D+00  1.02D+00  8.61D-01  2.70D+00  2.72D+00
                    CP:  1.04D+00  9.04D-01  1.50D+00  1.04D+00  9.41D-01
                    CP:  9.15D-01
 E= -1385.49415918633     Delta-E=       -0.000000000007 Rises=F Damp=F
 DIIS: error= 7.57D-08 at cycle  12 NSaved=  12.
 NSaved=12 IEnMin=12 EnMin= -1385.49415918633     IErMin=12 ErrMin= 7.57D-08
 ErrMax= 7.57D-08  0.00D+00 EMaxC= 1.00D-01 BMatC= 1.22D-11 BMatP= 2.45D-11
 IDIUse=1 WtCom= 1.00D+00 WtEn= 0.00D+00
 Coeff-Com:  0.829D-04-0.608D-02-0.101D-01-0.450D-02 0.225D-01 0.174D-01
 Coeff-Com:  0.120D-01-0.506D-01-0.843D-01-0.196D-02 0.472D+00 0.634D+00
 Coeff:      0.829D-04-0.608D-02-0.101D-01-0.450D-02 0.225D-01 0.174D-01
 Coeff:      0.120D-01-0.506D-01-0.843D-01-0.196D-02 0.472D+00 0.634D+00
 Gap=     0.121 Goal=   None    Shift=    0.000
 Gap=     0.053 Goal=   None    Shift=    0.000
 RMSDP=8.21D-09 MaxDP=5.51D-07 DE=-7.28D-12 OVMax= 9.89D-07

 SCF Done:  E(UB3LYP) =  -1385.49415919     A.U. after   23 cycles
            NFock= 23  Conv=0.82D-08     -V/T= 2.0076
 <Sx>= 0.0000 <Sy>= 0.0000 <Sz>= 0.5000 <S**2>= 0.7750 S= 0.5124
 <L.S>= 0.000000000000E+00
 KE= 1.374983363110D+03 PE=-7.100269469108D+03 EE= 2.399183959189D+03
 Annihilation of the first spin contaminant:
 S**2 before annihilation     0.7750,   after     0.7505
 Leave Link  502 at Sat Jun  1 12:58:15 2024, MaxMem=   104857600 cpu:             956.3 elap:             512.8
 (Enter /software/spackages_v0_21_prod/apps/linux-ubuntu22.04-zen2/gcc-13.2.0/gaussian_sse4-16-C-g6jkfwqig4o4stofyyxv7ma3rrfxhpfk/g16/l601.exe)
 Copying SCF densities to generalized density rwf, IOpCl= 1 IROHF=0.

 **********************************************************************

            Population analysis using the SCF Density.

 **********************************************************************

 Alpha  occ. eigenvalues --  -89.09387 -19.34056 -19.31912 -14.52668 -14.49470
 Alpha  occ. eigenvalues --  -14.49128 -14.47538 -10.41990 -10.40069 -10.39355
 Alpha  occ. eigenvalues --  -10.38818 -10.38635 -10.37359 -10.36800 -10.36307
 Alpha  occ. eigenvalues --  -10.35339 -10.35085 -10.34710 -10.34193 -10.33754
 Alpha  occ. eigenvalues --  -10.33618 -10.33035 -10.32601  -8.14880  -6.11410
 Alpha  occ. eigenvalues --   -6.10814  -6.10655  -1.22620  -1.19714  -1.14278
 Alpha  occ. eigenvalues --   -1.13603  -1.07726  -1.01524  -0.99797  -0.95290
 Alpha  occ. eigenvalues --   -0.92705  -0.91601  -0.89565  -0.88071  -0.84068
 Alpha  occ. eigenvalues --   -0.83600  -0.81515  -0.79199  -0.75677  -0.75227
 Alpha  occ. eigenvalues --   -0.73475  -0.72732  -0.70338  -0.66927  -0.66415
 Alpha  occ. eigenvalues --   -0.65689  -0.63614  -0.62817  -0.61651  -0.61068
 Alpha  occ. eigenvalues --   -0.60132  -0.59537  -0.59270  -0.59021  -0.58777
 Alpha  occ. eigenvalues --   -0.57625  -0.56741  -0.56294  -0.54704  -0.53991
 Alpha  occ. eigenvalues --   -0.53286  -0.52678  -0.52246  -0.51914  -0.50406
 Alpha  occ. eigenvalues --   -0.50200  -0.50061  -0.47857  -0.46502  -0.46284
 Alpha  occ. eigenvalues --   -0.46018  -0.44825  -0.43464  -0.42122  -0.41719
 Alpha  occ. eigenvalues --   -0.40450  -0.39223  -0.38224  -0.34648  -0.34308
 Alpha virt. eigenvalues --   -0.22196  -0.16648  -0.12785  -0.12198  -0.11437
 Alpha virt. eigenvalues --   -0.10489  -0.06137  -0.04632  -0.04270  -0.02173
 Alpha virt. eigenvalues --   -0.00393   0.00087   0.00379   0.01283   0.02552
 Alpha virt. eigenvalues --    0.02807   0.03213   0.03469   0.04187   0.04381
 Alpha virt. eigenvalues --    0.04659   0.05184   0.05428   0.06025   0.06175
 Alpha virt. eigenvalues --    0.06342   0.07668   0.08990   0.10518   0.10861
 Alpha virt. eigenvalues --    0.11626   0.12766   0.14010   0.14711   0.15585
 Alpha virt. eigenvalues --    0.17001   0.18809   0.18897   0.21535   0.21848
 Alpha virt. eigenvalues --    0.23230   0.24449   0.24760   0.26177   0.27188
 Alpha virt. eigenvalues --    0.29450   0.30682   0.31805   0.31882   0.34571
 Alpha virt. eigenvalues --    0.34910   0.35643   0.37453   0.37628   0.38412
 Alpha virt. eigenvalues --    0.39255   0.39837   0.40987   0.41406   0.41825
 Alpha virt. eigenvalues --    0.41993   0.42480   0.42757   0.42813   0.43216
 Alpha virt. eigenvalues --    0.44367   0.45243   0.46039   0.46431   0.46648
 Alpha virt. eigenvalues --    0.48027   0.48175   0.49041   0.49460   0.50324
 Alpha virt. eigenvalues --    0.51028   0.51919   0.52064   0.52370   0.52568
 Alpha virt. eigenvalues --    0.54921   0.56615   0.57249   0.58215   0.59950
 Alpha virt. eigenvalues --    0.61318   0.61561   0.64011   0.64862   0.65654
 Alpha virt. eigenvalues --    0.66303   0.67042   0.67664   0.68610   0.70019
 Alpha virt. eigenvalues --    0.71158   0.71589   0.72223   0.72310   0.72869
 Alpha virt. eigenvalues --    0.73197   0.74601   0.74880   0.75550   0.75584
 Alpha virt. eigenvalues --    0.76021   0.76273   0.77619   0.78225   0.78969
 Alpha virt. eigenvalues --    0.80415   0.80862   0.81570   0.82368   0.83063
 Alpha virt. eigenvalues --    0.83559   0.85343   0.86505   0.86761   0.87875
 Alpha virt. eigenvalues --    0.88810   0.89655   0.90297   0.91087   0.92953
 Alpha virt. eigenvalues --    0.94280   0.95110   0.97324   0.97541   0.97742
 Alpha virt. eigenvalues --    0.98515   1.01034   1.02417   1.03221   1.04438
 Alpha virt. eigenvalues --    1.06398   1.07512   1.08836   1.09592   1.10345
 Alpha virt. eigenvalues --    1.11055   1.13621   1.15158   1.16859   1.18435
 Alpha virt. eigenvalues --    1.20949   1.21280   1.21960   1.22500   1.24618
 Alpha virt. eigenvalues --    1.25025   1.25525   1.26399   1.27036   1.28003
 Alpha virt. eigenvalues --    1.28544   1.31406   1.32605   1.34085   1.34325
 Alpha virt. eigenvalues --    1.36932   1.37639   1.38735   1.38912   1.44085
 Alpha virt. eigenvalues --    1.45250   1.47908   1.51266   1.53517   1.54201
 Alpha virt. eigenvalues --    1.55457   1.57314   1.58488   1.59499   1.62315
 Alpha virt. eigenvalues --    1.63475   1.64719   1.65376   1.65987   1.68355
 Alpha virt. eigenvalues --    1.68470   1.70162   1.72260   1.73018   1.73308
 Alpha virt. eigenvalues --    1.74629   1.75242   1.75939   1.77209   1.77958
 Alpha virt. eigenvalues --    1.78290   1.79767   1.80155   1.81699   1.83272
 Alpha virt. eigenvalues --    1.83963   1.85732   1.87329   1.88499   1.90279
 Alpha virt. eigenvalues --    1.91204   1.91780   1.94741   1.95582   1.96615
 Alpha virt. eigenvalues --    1.97581   2.00442   2.02440   2.03597   2.04991
 Alpha virt. eigenvalues --    2.07014   2.07738   2.08741   2.09244   2.10587
 Alpha virt. eigenvalues --    2.10832   2.11244   2.12269   2.12664   2.15377
 Alpha virt. eigenvalues --    2.15950   2.16900   2.17657   2.18361   2.19689
 Alpha virt. eigenvalues --    2.21601   2.22586   2.23822   2.26598   2.27086
 Alpha virt. eigenvalues --    2.27739   2.30975   2.32391   2.35120   2.35418
 Alpha virt. eigenvalues --    2.36579   2.38139   2.39734   2.41891   2.44587
 Alpha virt. eigenvalues --    2.46821   2.47276   2.48498   2.49371   2.51427
 Alpha virt. eigenvalues --    2.52185   2.53480   2.54774   2.55514   2.58041
 Alpha virt. eigenvalues --    2.59959   2.65138   2.67115   2.69171   2.72151
 Alpha virt. eigenvalues --    2.73467   2.75498   2.79985   2.80047   2.83581
 Alpha virt. eigenvalues --    2.85028   2.87500   2.93207   3.00894   3.03986
 Alpha virt. eigenvalues --    3.16064   3.17538   3.29981   3.33178   3.73359
 Alpha virt. eigenvalues --    3.84355   3.84909   3.88905   3.92002   3.94838
 Alpha virt. eigenvalues --    3.96173   3.97926   3.98379   4.03350   4.08794
 Alpha virt. eigenvalues --    4.11934   4.14203   4.16431   4.21603   4.23002
 Alpha virt. eigenvalues --    4.26528   4.28788   4.38730   4.46582   4.54304
 Alpha virt. eigenvalues --    4.60584   4.85992
  Beta  occ. eigenvalues --  -89.09380 -19.33712 -19.31699 -14.52750 -14.49532
  Beta  occ. eigenvalues --  -14.49027 -14.47325 -10.41705 -10.39935 -10.38980
  Beta  occ. eigenvalues --  -10.38928 -10.38350 -10.37298 -10.36849 -10.36320
  Beta  occ. eigenvalues --  -10.35399 -10.35092 -10.34523 -10.34261 -10.33753
  Beta  occ. eigenvalues --  -10.33407 -10.33125 -10.32646  -8.14873  -6.11406
  Beta  occ. eigenvalues --   -6.10811  -6.10631  -1.21979  -1.19249  -1.14203
  Beta  occ. eigenvalues --   -1.13363  -1.07437  -1.01458  -0.99372  -0.94980
  Beta  occ. eigenvalues --   -0.92385  -0.91259  -0.89448  -0.87866  -0.83678
  Beta  occ. eigenvalues --   -0.83478  -0.81483  -0.78979  -0.75561  -0.75039
  Beta  occ. eigenvalues --   -0.73308  -0.72498  -0.70115  -0.66814  -0.66212
  Beta  occ. eigenvalues --   -0.65579  -0.63507  -0.62712  -0.60953  -0.60624
  Beta  occ. eigenvalues --   -0.59549  -0.59452  -0.59117  -0.58903  -0.58226
  Beta  occ. eigenvalues --   -0.57435  -0.56640  -0.56190  -0.54655  -0.53852
  Beta  occ. eigenvalues --   -0.52700  -0.52564  -0.52090  -0.51369  -0.50214
  Beta  occ. eigenvalues --   -0.50018  -0.49274  -0.47617  -0.45862  -0.45749
  Beta  occ. eigenvalues --   -0.45538  -0.44785  -0.42201  -0.42041  -0.41079
  Beta  occ. eigenvalues --   -0.39979  -0.38990  -0.37202  -0.34231
  Beta virt. eigenvalues --   -0.28919  -0.21609  -0.15672  -0.12120  -0.11600
  Beta virt. eigenvalues --   -0.10471  -0.09942  -0.05034  -0.04498  -0.04137
  Beta virt. eigenvalues --   -0.02121  -0.00361   0.00211   0.00476   0.01334
  Beta virt. eigenvalues --    0.02696   0.03255   0.03574   0.03926   0.04350
  Beta virt. eigenvalues --    0.04624   0.04986   0.05255   0.05513   0.06155
  Beta virt. eigenvalues --    0.06246   0.06464   0.07721   0.09244   0.10622
  Beta virt. eigenvalues --    0.10998   0.11760   0.12929   0.14209   0.14988
  Beta virt. eigenvalues --    0.15673   0.17115   0.19037   0.19146   0.21699
  Beta virt. eigenvalues --    0.22018   0.23275   0.24545   0.25035   0.26404
  Beta virt. eigenvalues --    0.27400   0.29634   0.30830   0.31925   0.31988
  Beta virt. eigenvalues --    0.34699   0.35111   0.36086   0.37789   0.37874
  Beta virt. eigenvalues --    0.38600   0.39341   0.40129   0.41164   0.41515
  Beta virt. eigenvalues --    0.41938   0.42107   0.42579   0.42854   0.42961
  Beta virt. eigenvalues --    0.43361   0.44661   0.45411   0.46204   0.46557
  Beta virt. eigenvalues --    0.46754   0.48128   0.48631   0.49025   0.49536
  Beta virt. eigenvalues --    0.50789   0.51172   0.52110   0.52289   0.52498
  Beta virt. eigenvalues --    0.52732   0.55108   0.56687   0.57669   0.58509
  Beta virt. eigenvalues --    0.60324   0.61505   0.61698   0.64081   0.64932
  Beta virt. eigenvalues --    0.66015   0.66430   0.67413   0.67785   0.68698
  Beta virt. eigenvalues --    0.70100   0.71188   0.71704   0.72265   0.72407
  Beta virt. eigenvalues --    0.73016   0.73308   0.74657   0.75014   0.75692
  Beta virt. eigenvalues --    0.75848   0.76155   0.76369   0.77747   0.78278
  Beta virt. eigenvalues --    0.79138   0.80520   0.81018   0.81703   0.82479
  Beta virt. eigenvalues --    0.83134   0.83707   0.85390   0.86847   0.87355
  Beta virt. eigenvalues --    0.87951   0.88872   0.89725   0.90385   0.91211
  Beta virt. eigenvalues --    0.93023   0.94394   0.95195   0.97425   0.97613
  Beta virt. eigenvalues --    0.98473   0.98681   1.01138   1.02493   1.03364
  Beta virt. eigenvalues --    1.04596   1.06553   1.07939   1.08969   1.09840
  Beta virt. eigenvalues --    1.10515   1.11199   1.13939   1.15276   1.17259
  Beta virt. eigenvalues --    1.18804   1.21199   1.21867   1.22194   1.22704
  Beta virt. eigenvalues --    1.24795   1.25260   1.25851   1.26630   1.27219
  Beta virt. eigenvalues --    1.28343   1.29193   1.31590   1.32767   1.34241
  Beta virt. eigenvalues --    1.34596   1.37179   1.38023   1.38857   1.39135
  Beta virt. eigenvalues --    1.44282   1.45440   1.48071   1.51445   1.53663
  Beta virt. eigenvalues --    1.54273   1.55695   1.57530   1.58775   1.59901
  Beta virt. eigenvalues --    1.62448   1.63752   1.64817   1.65602   1.66087
  Beta virt. eigenvalues --    1.68596   1.68694   1.70385   1.72484   1.73206
  Beta virt. eigenvalues --    1.73541   1.74877   1.75530   1.76072   1.77463
  Beta virt. eigenvalues --    1.78082   1.78555   1.79975   1.80346   1.81814
  Beta virt. eigenvalues --    1.83550   1.84129   1.85977   1.87509   1.88578
  Beta virt. eigenvalues --    1.90626   1.91326   1.92005   1.95050   1.95825
  Beta virt. eigenvalues --    1.96908   1.97741   2.00794   2.03120   2.03759
  Beta virt. eigenvalues --    2.05321   2.07492   2.08170   2.09163   2.09498
  Beta virt. eigenvalues --    2.10874   2.11132   2.11502   2.12331   2.13046
  Beta virt. eigenvalues --    2.15558   2.16265   2.17136   2.17807   2.18460
  Beta virt. eigenvalues --    2.19880   2.21906   2.22770   2.24275   2.26648
  Beta virt. eigenvalues --    2.27329   2.28025   2.31063   2.32455   2.35464
  Beta virt. eigenvalues --    2.35812   2.36828   2.38803   2.39908   2.41978
  Beta virt. eigenvalues --    2.44694   2.47271   2.47612   2.48813   2.49770
  Beta virt. eigenvalues --    2.51676   2.52366   2.53957   2.55114   2.55672
  Beta virt. eigenvalues --    2.58306   2.60262   2.65483   2.67229   2.69326
  Beta virt. eigenvalues --    2.72347   2.73595   2.75675   2.80094   2.80281
  Beta virt. eigenvalues --    2.83716   2.85190   2.87656   2.93427   3.01115
  Beta virt. eigenvalues --    3.04166   3.16157   3.17682   3.30042   3.33306
  Beta virt. eigenvalues --    3.73439   3.84489   3.85259   3.88902   3.92101
  Beta virt. eigenvalues --    3.95041   3.96352   3.97988   3.98628   4.03615
  Beta virt. eigenvalues --    4.08874   4.12061   4.14265   4.16567   4.21829
  Beta virt. eigenvalues --    4.23131   4.26701   4.29078   4.38774   4.46892
  Beta virt. eigenvalues --    4.54695   4.60822   4.86390
          Condensed to atoms (all electrons):
               1          2          3          4          5          6
     1  C    4.927639   0.230097  -0.044019  -0.004627   0.000578  -0.000010
     2  O    0.230097   8.144058   0.306618  -0.062282   0.002691  -0.000031
     3  C   -0.044019   0.306618   4.684741   0.453579   0.021443   0.005536
     4  C   -0.004627  -0.062282   0.453579   5.323147   0.413996  -0.083648
     5  C    0.000578   0.002691   0.021443   0.413996   4.738557   0.423992
     6  C   -0.000010  -0.000031   0.005536  -0.083648   0.423992   5.300447
     7  C    0.000000   0.000000  -0.000144   0.006893  -0.001668   0.472563
     8  C    0.000000  -0.000000   0.000003  -0.000183   0.004923  -0.054424
     9  N    0.000000   0.000000  -0.000000   0.000000  -0.000179   0.004514
    10  C    0.000000  -0.000000   0.000000  -0.000000   0.000004  -0.000136
    11  C   -0.000000   0.000000   0.000000   0.000000  -0.000000  -0.000007
    12  C   -0.000000  -0.000000   0.000000  -0.000000  -0.000003   0.000286
    13  N   -0.000000   0.000000  -0.000000  -0.000000  -0.000000   0.000008
    14  S    0.000000   0.000000  -0.000000  -0.000000  -0.000002   0.000313
    15  N   -0.000000   0.000000  -0.000000  -0.000010   0.000413  -0.012786
    16  C   -0.000000  -0.000000  -0.000000   0.000001   0.000548  -0.018172
    17  N    0.000000  -0.000000  -0.000472   0.013513  -0.019615  -0.123997
    18  C    0.000000  -0.000000   0.000016  -0.000152   0.005121   0.006662
    19  C    0.000024  -0.000029  -0.030079  -0.041960   0.431858  -0.046488
    20  C   -0.000130   0.003796  -0.067398  -0.060531  -0.066633   0.019238
    21  C    0.005144  -0.054799   0.403224  -0.063778  -0.021568  -0.000421
    22  O    0.000007  -0.003536  -0.053742   0.003613   0.000049  -0.000000
    23  C    0.000003   0.000017   0.005009  -0.000124   0.000017  -0.000000
    24  H    0.388101  -0.030561   0.003315  -0.000019  -0.000000  -0.000000
    25  H    0.366037  -0.031412  -0.007472   0.006152  -0.000041  -0.000006
    26  H    0.366060  -0.031413  -0.007409   0.006053  -0.000057  -0.000009
    27  H    0.007155  -0.007085  -0.043943   0.358192  -0.029456  -0.005425
    28  H    0.000000  -0.000000  -0.000036  -0.004428  -0.028717   0.353832
    29  H    0.000000   0.000000  -0.000000   0.000000   0.000000   0.000001
    30  H   -0.000000  -0.000000  -0.000000  -0.000000   0.000000  -0.000000
    31  H    0.000000   0.000000  -0.000001  -0.000005  -0.000080  -0.000144
    32  H    0.000000   0.000000  -0.000000  -0.000012  -0.000050  -0.000004
[...]
     3  C(13)              0.00362       4.06622       1.45093       1.35635
     4  C(13)             -0.01023     -11.50031      -4.10360      -3.83609
     5  C(13)              0.01129      12.69635       4.53037       4.23505
     6  C(13)             -0.00857      -9.62887      -3.43582      -3.21185
     7  C(13)              0.03175      35.68950      12.73490      11.90474
     8  C(13)             -0.01734     -19.49215      -6.95528      -6.50188
     9  N(14)              0.01706       5.51093       1.96644       1.83825
    10  C(13)             -0.00946     -10.63420      -3.79455      -3.54719
    11  C(13)              0.01746      19.62903       7.00413       6.54754
    12  C(13)             -0.00760      -8.54273      -3.04826      -2.84955
    13  N(14)              0.00702       2.26719       0.80899       0.75625
    14  S(33)              0.00152       0.52293       0.18659       0.17443
    15  N(14)             -0.00502      -1.62266      -0.57901      -0.54126
    16  C(13)              0.00648       7.28567       2.59971       2.43024
    17  N(14)             -0.01466      -4.73716      -1.69034      -1.58015
    18  C(13)              0.00021       0.23993       0.08561       0.08003
    19  C(13)              0.01786      20.08311       7.16615       6.69900
    20  C(13)             -0.01078     -12.11686      -4.32360      -4.04175
    21  C(13)              0.01778      19.98894       7.13255       6.66759
    22  O(17)              0.02610     -15.81988      -5.64493      -5.27694
    23  C(13)             -0.00285      -3.19856      -1.14132      -1.06692
    24  H(1)              -0.00003      -0.14217      -0.05073      -0.04742
    25  H(1)               0.00162       7.25694       2.58946       2.42065
    26  H(1)               0.00162       7.25574       2.58903       2.42026
    27  H(1)               0.00058       2.57455       0.91866       0.85878
    28  H(1)               0.00004       0.19653       0.07013       0.06556
    29  H(1)               0.00057       2.56584       0.91556       0.85587
    30  H(1)              -0.00257     -11.48279      -4.09735      -3.83025
    31  H(1)              -0.00055      -2.46033      -0.87791      -0.82068
    32  H(1)              -0.00055      -2.46338      -0.87900      -0.82170
    33  H(1)              -0.00010      -0.45455      -0.16219      -0.15162
    34  H(1)               0.00019       0.84069       0.29998       0.28042
    35  H(1)               0.00248      11.09628       3.95943       3.70132
    36  H(1)               0.00248      11.09836       3.96017       3.70201
    37  H(1)              -0.00007      -0.32214      -0.11495      -0.10745
 --------------------------------------------------------
       Center         ----  Spin Dipole Couplings  ----
                      3XX-RR        3YY-RR        3ZZ-RR
 --------------------------------------------------------
     1   Atom       -0.002190      0.002420     -0.000230
     2   Atom       -0.131772     -0.042155      0.173927
     3   Atom       -0.049349     -0.016015      0.065364
     4   Atom        0.028105      0.009887     -0.037992
     5   Atom       -0.069815     -0.023445      0.093260
     6   Atom        0.007104      0.003320     -0.010424
     7   Atom       -0.150766     -0.055279      0.206044
     8   Atom        0.046326      0.010787     -0.057113
     9   Atom       -0.114978     -0.040885      0.155863
    10   Atom        0.025960      0.005033     -0.030993
    11   Atom       -0.082809     -0.029623      0.112432
    12   Atom        0.012212      0.008082     -0.020294
    13   Atom       -0.055411     -0.017781      0.073192
    14   Atom       -0.032059     -0.011809      0.043868
    15   Atom        0.035402      0.012816     -0.048219
    16   Atom       -0.018786     -0.009883      0.028669
    17   Atom        0.030378      0.011746     -0.042123
    18   Atom        0.000481      0.001123     -0.001604
    19   Atom       -0.104940     -0.038190      0.143130
    20   Atom        0.016655      0.001146     -0.017801
    21   Atom       -0.117969     -0.043024      0.160992
    22   Atom       -0.264868     -0.084803      0.349671
    23   Atom       -0.003321      0.005064     -0.001743
    24   Atom        0.000476      0.000405     -0.000881
    25   Atom       -0.001211      0.000427      0.000784
    26   Atom       -0.001211      0.002844     -0.001633
    27   Atom        0.002978     -0.000636     -0.002343
    28   Atom       -0.002142      0.003459     -0.001318
    29   Atom        0.001594      0.000226     -0.001820
    30   Atom        0.012232     -0.008686     -0.003546
    31   Atom       -0.000048      0.001957     -0.001909
    32   Atom       -0.000148      0.000251     -0.000102
    33   Atom        0.000129      0.001381     -0.001510
    34   Atom        0.002004      0.000698     -0.002702
    35   Atom       -0.002075      0.000782      0.001293
    36   Atom       -0.002082      0.005052     -0.002970
    37   Atom       -0.000037      0.001737     -0.001699
 --------------------------------------------------------
                        XY            XZ            YZ
 --------------------------------------------------------
     1   Atom        0.001678      0.000833      0.002203
     2   Atom        0.017271     -0.022608     -0.159498
     3   Atom        0.008970     -0.007143     -0.059697
     4   Atom       -0.002489      0.005599      0.035554
     5   Atom        0.007648     -0.012926     -0.086478
     6   Atom       -0.000047      0.001860      0.010296
     7   Atom        0.017491     -0.028297     -0.193541
     8   Atom       -0.000596      0.010515      0.051628
     9   Atom        0.012227     -0.022731     -0.147842
    10   Atom       -0.006443      0.002377      0.026474
    11   Atom        0.008348     -0.016408     -0.106859
    12   Atom       -0.001528      0.002811      0.021332
    13   Atom        0.005815     -0.010458     -0.068443
    14   Atom       -0.002652     -0.009500     -0.042852
    15   Atom       -0.004568      0.006485      0.045770
    16   Atom        0.000771     -0.004767     -0.029272
    17   Atom       -0.001391      0.006918      0.040100
    18   Atom        0.000690      0.000631      0.002135
    19   Atom        0.010720     -0.020359     -0.134421
    20   Atom       -0.000978      0.002896      0.014107
    21   Atom        0.009845     -0.024026     -0.151574
    22   Atom        0.023597     -0.051431     -0.322662
    23   Atom       -0.001668     -0.000814      0.004813
    24   Atom        0.002167      0.001326      0.001277
    25   Atom        0.000586      0.000319      0.002440
    26   Atom        0.000769      0.000419      0.000809
    27   Atom        0.000177      0.000586      0.001320
    28   Atom        0.001164      0.000719      0.003719
    29   Atom       -0.001678     -0.000566      0.001309
    30   Atom        0.000046      0.001163     -0.003788
    31   Atom        0.000999      0.000276      0.001119
    32   Atom        0.000530      0.000836      0.002241
    33   Atom       -0.000187      0.000129      0.002115
    34   Atom        0.002058      0.001609      0.002849
    35   Atom       -0.000848     -0.000462      0.004125
    36   Atom       -0.000543     -0.000251      0.001245
    37   Atom       -0.003689     -0.001752      0.002027
 --------------------------------------------------------


 ---------------------------------------------------------------------------------
              Anisotropic Spin Dipole Couplings in Principal Axis System
 ---------------------------------------------------------------------------------

       Atom             a.u.   MegaHertz   Gauss  10(-4) cm-1        Axes

              Baa    -0.0027    -0.368    -0.131    -0.123  0.9572 -0.2806 -0.0714
     1 C(13)  Bbb    -0.0015    -0.197    -0.070    -0.066 -0.0715 -0.4681  0.8808
              Bcc     0.0042     0.565     0.202     0.189  0.2806  0.8380  0.4681
 
              Baa    -0.1361     9.848     3.514     3.285  0.8928 -0.4237 -0.1529
     2 O(17)  Bbb    -0.1244     9.005     3.213     3.004  0.4447  0.7754  0.4482
              Bcc     0.2605   -18.853    -6.727    -6.289 -0.0714 -0.4682  0.8808
 
              Baa    -0.0536    -7.191    -2.566    -2.399  0.7937 -0.5615 -0.2341
     3 C(13)  Bbb    -0.0441    -5.916    -2.111    -1.973  0.6041  0.6824  0.4116
              Bcc     0.0977    13.107     4.677     4.372 -0.0714 -0.4681  0.8808
 
              Baa    -0.0574    -7.696    -2.746    -2.567 -0.0713 -0.4683  0.8807
     4 C(13)  Bbb     0.0282     3.787     1.351     1.263  0.8027 -0.5510 -0.2280
              Bcc     0.0291     3.909     1.395     1.304  0.5921  0.6907  0.4152
 
              Baa    -0.0712    -9.548    -3.407    -3.185  0.9282 -0.3543 -0.1134
     5 C(13)  Bbb    -0.0691    -9.279    -3.311    -3.095  0.3651  0.8094  0.4600
              Bcc     0.1403    18.827     6.718     6.280 -0.0712 -0.4684  0.8806
 
              Baa    -0.0161    -2.154    -0.769    -0.718 -0.0717 -0.4683  0.8807
     6 C(13)  Bbb     0.0069     0.922     0.329     0.307  0.9177 -0.3769 -0.1257
              Bcc     0.0092     1.232     0.440     0.411  0.3908  0.7992  0.4568
 
              Baa    -0.1589   -21.328    -7.610    -7.114 -0.3487  0.8389  0.4178
     7 C(13)  Bbb    -0.1523   -20.443    -7.295    -6.819  0.9345  0.2771  0.2235
              Bcc     0.3113    41.771    14.905    13.933 -0.0717 -0.4684  0.8806
 
              Baa    -0.0856   -11.493    -4.101    -3.834 -0.0722 -0.4711  0.8791
     8 C(13)  Bbb     0.0367     4.925     1.757     1.643 -0.3954  0.8227  0.4084
              Bcc     0.0489     6.567     2.343     2.191  0.9157  0.3181  0.2457
 
              Baa    -0.1201    -4.632    -1.653    -1.545 -0.0134  0.8818  0.4713
     9 N(14)  Bbb    -0.1169    -4.507    -1.608    -1.504  0.9972 -0.0227  0.0708
              Bcc     0.2370     9.139     3.261     3.048 -0.0731 -0.4710  0.8791
 
              Baa    -0.0454    -6.088    -2.172    -2.031 -0.0718 -0.4710  0.8792
    10 C(13)  Bbb     0.0168     2.260     0.806     0.754  0.4326  0.7795  0.4529
              Bcc     0.0285     3.828     1.366     1.277  0.8987 -0.4129 -0.1478
 
              Baa    -0.0870   -11.669    -4.164    -3.892  0.1379  0.8682  0.4766
    11 C(13)  Bbb    -0.0841   -11.284    -4.026    -3.764  0.9878 -0.1557 -0.0022
              Bcc     0.1711    22.953     8.190     7.656 -0.0723 -0.4711  0.8791
 
              Baa    -0.0320    -4.288    -1.530    -1.430 -0.0722 -0.4711  0.8791
    12 C(13)  Bbb     0.0124     1.670     0.596     0.557  0.9974 -0.0317  0.0650
              Bcc     0.0195     2.619     0.934     0.873 -0.0027  0.8815  0.4722
 
              Baa    -0.0563    -2.171    -0.775    -0.724  0.9924 -0.1220  0.0157
    13 N(14)  Bbb    -0.0545    -2.100    -0.749    -0.701  0.0999  0.8735  0.4765
              Bcc     0.1107     4.271     1.524     1.425 -0.0718 -0.4713  0.8790
 
              Baa    -0.0408    -1.672    -0.597    -0.558  0.6388  0.6551  0.4034
    14 S(33)  Bbb    -0.0269    -1.101    -0.393    -0.367  0.7661 -0.5902 -0.2547
              Bcc     0.0676     2.773     0.989     0.925 -0.0712 -0.4717  0.8789
 
              Baa    -0.0733    -2.826    -1.009    -0.943 -0.0723 -0.4712  0.8791
    15 N(14)  Bbb     0.0355     1.368     0.488     0.456  0.8835  0.3787  0.2756
              Bcc     0.0378     1.458     0.520     0.486 -0.4628  0.7966  0.3889
 
              Baa    -0.0260    -3.491    -1.246    -1.165  0.2225  0.8513  0.4751
    16 C(13)  Bbb    -0.0188    -2.516    -0.898    -0.839  0.9723 -0.2296 -0.0440
              Bcc     0.0448     6.008     2.144     2.004 -0.0716 -0.4717  0.8788
 
              Baa    -0.0640    -2.468    -0.880    -0.823 -0.0715 -0.4678  0.8809
    17 N(14)  Bbb     0.0297     1.145     0.408     0.382  0.8601 -0.4761 -0.1831
              Bcc     0.0343     1.323     0.472     0.441  0.5051  0.7446  0.4364
 
              Baa    -0.0028    -0.374    -0.134    -0.125 -0.0711 -0.4681  0.8808
    18 C(13)  Bbb     0.0001     0.016     0.006     0.005  0.9204 -0.3711 -0.1229
              Bcc     0.0027     0.358     0.128     0.120  0.3844  0.8020  0.4572
 
              Baa    -0.1097   -14.717    -5.251    -4.909  0.0301  0.8815  0.4712
    19 C(13)  Bbb    -0.1066   -14.303    -5.104    -4.771  0.9970 -0.0602  0.0489
              Bcc     0.2163    29.019    10.355     9.680 -0.0715 -0.4683  0.8807
 
              Baa    -0.0255    -3.427    -1.223    -1.143 -0.0713 -0.4683  0.8807
    20 C(13)  Bbb     0.0086     1.159     0.413     0.387 -0.0601  0.8834  0.4648
              Bcc     0.0169     2.268     0.809     0.756  0.9956  0.0198  0.0911
 
              Baa    -0.1250   -16.776    -5.986    -5.596  0.4454  0.7751  0.4482
    21 C(13)  Bbb    -0.1185   -15.904    -5.675    -5.305  0.8925 -0.4242 -0.1533
              Bcc     0.2435    32.680    11.661    10.901 -0.0713 -0.4683  0.8807
 
              Baa    -0.2697    19.518     6.965     6.511  0.9672  0.1833  0.1758
    22 O(17)  Bbb    -0.2557    18.503     6.602     6.172 -0.2437  0.8643  0.4400
              Bcc     0.5254   -38.021   -13.567   -12.682 -0.0713 -0.4684  0.8806
 
              Baa    -0.0042    -0.569    -0.203    -0.190 -0.0705 -0.4683  0.8807
    23 C(13)  Bbb    -0.0036    -0.487    -0.174    -0.162  0.9840  0.1122  0.1385
              Bcc     0.0079     1.055     0.376     0.352 -0.1637  0.8764  0.4529
 
              Baa    -0.0017    -0.924    -0.330    -0.308  0.7516 -0.6054 -0.2620
    24 H(1)   Bbb    -0.0017    -0.890    -0.317    -0.297 -0.0706 -0.4687  0.8805
              Bcc     0.0034     1.814     0.647     0.605  0.6559  0.6433  0.3950
 
              Baa    -0.0019    -1.021    -0.364    -0.341 -0.3226  0.7206 -0.6137
    25 H(1)   Bbb    -0.0012    -0.656    -0.234    -0.219  0.9355  0.1440 -0.3226
              Bcc     0.0031     1.678     0.599     0.560  0.1441  0.6782  0.7206
 
              Baa    -0.0019    -1.021    -0.364    -0.341 -0.4446 -0.0799  0.8921
    26 H(1)   Bbb    -0.0012    -0.656    -0.234    -0.219  0.8758 -0.2476  0.4143
              Bcc     0.0031     1.678     0.599     0.560  0.1878  0.9656  0.1801
 
              Baa    -0.0031    -1.650    -0.589    -0.550 -0.0714 -0.4682  0.8807
    27 H(1)   Bbb     0.0000     0.011     0.004     0.004 -0.1427  0.8787  0.4556
              Bcc     0.0031     1.639     0.585     0.547  0.9872  0.0931  0.1295
 
              Baa    -0.0034    -1.790    -0.639    -0.597 -0.0723 -0.4683  0.8806
    28 H(1)   Bbb    -0.0024    -1.266    -0.452    -0.422  0.9826 -0.1848 -0.0177
              Bcc     0.0057     3.056     1.090     1.019  0.1711  0.8640  0.4735
 
              Baa    -0.0025    -1.320    -0.471    -0.440 -0.0718 -0.4709  0.8793
    29 H(1)   Bbb    -0.0006    -0.295    -0.105    -0.099  0.6265  0.6646  0.4071
              Bcc     0.0030     1.616     0.577     0.539  0.7761 -0.5801 -0.2473
 
              Baa    -0.0107    -5.714    -2.039    -1.906 -0.0256  0.8820  0.4706
    30 H(1)   Bbb    -0.0016    -0.860    -0.307    -0.287 -0.0723 -0.4711  0.8791
              Bcc     0.0123     6.573     2.346     2.193  0.9971 -0.0115  0.0758
 
              Baa    -0.0022    -1.179    -0.421    -0.393 -0.0040 -0.2584  0.9660
    31 H(1)   Bbb    -0.0004    -0.238    -0.085    -0.079  0.9337 -0.3468 -0.0889
              Bcc     0.0027     1.417     0.505     0.473  0.3580  0.9016  0.2427
 
              Baa    -0.0022    -1.178    -0.420    -0.393 -0.1355 -0.6512  0.7467
    32 H(1)   Bbb    -0.0004    -0.236    -0.084    -0.079  0.9360 -0.3312 -0.1190
              Bcc     0.0027     1.414     0.505     0.472  0.3248  0.6828  0.6544
 
              Baa    -0.0026    -1.409    -0.503    -0.470 -0.0726 -0.4669  0.8813
    33 H(1)   Bbb     0.0001     0.074     0.026     0.025  0.9964  0.0055  0.0850
              Bcc     0.0025     1.335     0.476     0.445 -0.0446  0.8843  0.4648
 
              Baa    -0.0043    -2.320    -0.828    -0.774 -0.0714 -0.4682  0.8807
    34 H(1)   Bbb    -0.0004    -0.218    -0.078    -0.073  0.7238 -0.6319 -0.2772
              Bcc     0.0048     2.538     0.906     0.847  0.6863  0.6177  0.3840
 
              Baa    -0.0032    -1.700    -0.606    -0.567  0.2857  0.7194 -0.6331
    35 H(1)   Bbb    -0.0021    -1.120    -0.400    -0.374  0.9503 -0.1273  0.2842
              Bcc     0.0053     2.820     1.006     0.941 -0.1238  0.6829  0.7200
 
              Baa    -0.0032    -1.699    -0.606    -0.567  0.1549 -0.1377  0.9783
    36 H(1)   Bbb    -0.0021    -1.121    -0.400    -0.374  0.9849  0.0994 -0.1419
              Bcc     0.0053     2.820     1.006     0.941 -0.0777  0.9855  0.1510
 
              Baa    -0.0030    -1.594    -0.569    -0.532  0.8078  0.4910  0.3260
    37 H(1)   Bbb    -0.0026    -1.406    -0.502    -0.469 -0.0709 -0.4682  0.8808
              Bcc     0.0056     3.000     1.071     1.001 -0.5851  0.7346  0.3434
 

 ---------------------------------------------------------------------------------

 No NMR shielding tensors so no spin-rotation constants.
 Leave Link  601 at Sat Jun  1 15:04:35 2024, MaxMem=   104857600 cpu:               1.8 elap:               0.9
 (Enter /software/spackages_v0_21_prod/apps/linux-ubuntu22.04-zen2/gcc-13.2.0/gaussian_sse4-16-C-g6jkfwqig4o4stofyyxv7ma3rrfxhpfk/g16/l9999.exe)
 Unable to Open any file for archive entry.
 1\1\GINC-ERC-HPC-COMP001\FOpt\UB3LYP\6-31G(d)\C16H14N4O2S1(1+,2)\K2255
 489\01-Jun-2024\0\\#p B3LYP/6-31G* opt, Geom=Checkpoint, nosymm\\b_18_
 v2 opt_c Smile String: COc1cc2cc(-c3nccc4nsnc34)n(C)c2cc1OC\\1,2\C,4.6
 231714086,2.0806074264,1.5608676484\O,4.3803484945,0.8419876839,0.8828
 417034\C,3.1196206191,0.5018258163,0.5999192114\C,1.9894253395,1.22830
 82179,0.8946217396\C,0.7269382702,0.7076788743,0.515511099\C,-0.577198
 8412,1.1669018117,0.6540898302\C,-1.4472571576,0.2102084071,0.07462996
 27\C,-2.8957313653,0.3119006483,0.0104891454\N,-3.5865500494,-0.666276
 4068,-0.5704180197\C,-4.937130568,-0.6300126298,-0.6621783306\C,-5.727
 6977784,0.3930249109,-0.1791085941\C,-5.0558401618,1.466667775,0.45154
 11153\N,-5.6235069429,2.556293219,0.9887969022\S,-4.404821871,3.468477
 8608,1.5781500414\N,-3.1190091643,2.526044312,1.1786769092\C,-3.612344
 3795,1.4485846287,0.560612068\N,-0.6788506415,-0.8460770414,-0.4248123
 375\C,-1.070583265,-2.0815928198,-1.1121205767\C,0.6416534816,-0.56432
 83267,-0.1678216021\C,1.7665520689,-1.316332088,-0.4763788802\C,3.0094
 860177,-0.7908711687,-0.0962841895\O,4.1718731677,-1.3790173083,-0.314
 9180993\C,4.2340898912,-2.6504051184,-0.9862074526\H,5.7042853165,2.13
 89406705,1.6793373383\H,4.1382104358,2.0839054825,2.5432493362\H,4.266
 2113879,2.9249583041,0.9609337398\H,2.0494868397,2.1807305834,1.405957
 4674\H,-0.9092456003,2.0835020963,1.1146771877\H,-5.3877843488,-1.4852
 135689,-1.1575585313\H,-6.8077140584,0.3845231176,-0.2725912645\H,-0.7
 331918858,-2.9442629396,-0.5285006503\H,-0.6076347698,-2.107742759,-2.
 1039116543\H,-2.1501195858,-2.1024529079,-1.2095554583\H,1.6977664046,
 -2.2671045685,-0.9875106032\H,3.8238170947,-2.5669925796,-1.9971685598
 \H,3.695574009,-3.4103274115,-0.4118879118\H,5.293722188,-2.8960422037
 ,-1.0311497297\\Version=ES64L-G16RevC.01\HF=-1385.4995789\S2=0.776739\
 S2-1=0.\S2A=0.750518\RMSD=9.555e-09\RMSF=3.553e-06\Dipole=1.4895569,-1
 .0811801,-0.4552749\Quadrupole=26.492162,-4.1324503,-22.3597118,-5.855
 4385,1.4553503,12.9280079\PG=C01 [X(C16H14N4O2S1)]\\@
 The archive entry for this job was punched.


 HE THAT FOLLOWS NATURE IS NEVER LOST.

                             -- BACON
 Job cpu time:       0 days  3 hours 59 minutes 38.0 seconds.
 Elapsed time:       0 days  2 hours 15 minutes  5.3 seconds.
 File lengths (MBytes):  RWF=    216 Int=      0 D2E=      0 Chk=    268 Scr=      8
 Normal termination of Gaussian 16 at Sat Jun  1 15:04:36 2024.
