 Entering Gaussian System, Link 0=g16
 Input=b_18_v2_n_c_geo.com
 Output=b_18_v2_n_c_geo.log
 Initial command:
 /software/spackages_v0_21_prod/apps/linux-ubuntu22.04-zen2/gcc-13.2.0/gaussian_sse4-16-C-g6jkfwqig4o4stofyyxv7ma3rrfxhpfk/g16/l1.exe "/scratch/prj/mime/TSJ_funnel_project/paper_fix_dimers/b_18_v2/Gau-3957734.inp" -scrdir="/scratch/prj/mime/TSJ_funnel_project/paper_fix_dimers/b_18_v2/"
 Entering Link 1 = /software/spackages_v0_21_prod/apps/linux-ubuntu22.04-zen2/gcc-13.2.0/gaussian_sse4-16-C-g6jkfwqig4o4stofyyxv7ma3rrfxhpfk/g16/l1.exe PID=   3957736.
  
 Copyright (c) 1988-2019, Gaussian, Inc.  All Rights Reserved.
  
 This is part of the Gaussian(R) 16 program.  It is based on
 the Gaussian(R) 09 system (copyright 2009, Gaussian, Inc.),
 the Gaussian(R) 03 system (copyright 2003, Gaussian, Inc.),
 the Gaussian(R) 98 system (copyright 1998, Gaussian, Inc.),
 the Gaussian(R) 94 system (copyright 1995, Gaussian, Inc.),
 the Gaussian 92(TM) system (copyright 1992, Gaussian, Inc.),
 the Gaussian 90(TM) system (copyright 1990, Gaussian, Inc.),
 the Gaussian 88(TM) system (copyright 1988, Gaussian, Inc.),
 the Gaussian 86(TM) system (copyright 1986, Carnegie Mellon
 University), and the Gaussian 82(TM) system (copyright 1983,
 Carnegie Mellon University). Gaussian is a federally registered
 trademark of Gaussian, Inc.
  
 This software contains proprietary and confidential information,
 including trade secrets, belonging to Gaussian, Inc.
  
 This software is provided under written license and may be
 used, copied, transmitted, or stored only in accord with that
 written license.
  
 The following legend is applicable only to US Government
 contracts under FAR:
  
                    RESTRICTED RIGHTS LEGEND
  
 Use, reproduction and disclosure by the US Government is
 subject to restrictions as set forth in subparagraphs (a)
 and (c) of the Commercial Computer Software - Restricted
 Rights clause in FAR 52.227-19.
  
 Gaussian, Inc.
 340 Quinnipiac St., Bldg. 40, Wallingford CT 06492
  
  
 ---------------------------------------------------------------
 Warning -- This program may not be used in any manner that
 competes with the business of Gaussian, Inc. or will provide
 assistance to any competitor of Gaussian, Inc.  The licensee
 of this program is prohibited from giving any competitor of
 Gaussian, Inc. access to this program.  By using this program,
 the user acknowledges that Gaussian, Inc. is engaged in the
 business of creating and licensing software in the field of
 computational chemistry and represents and warrants to the
 licensee that it is not a competitor of Gaussian, Inc. and that
 it will not use this program in any manner prohibited above.
 ---------------------------------------------------------------
  

 Cite this work as:
 Gaussian 16, Revision C.01,
 M. J. Frisch, G. W. Trucks, H. B. Schlegel, G. E. Scuseria, 
 M. A. Robb, J. R. Cheeseman, G. Scalmani, V. Barone, 
 G. A. Petersson, H. Nakatsuji, X. Li, M. Caricato, A. V. Marenich, 
 J. Bloino, B. G. Janesko, R. Gomperts, B. Mennucci, H. P. Hratchian, 
 J. V. Ortiz, A. F. Izmaylov, J. L. Sonnenberg, D. Williams-Young, 
 F. Ding, F. Lipparini, F. Egidi, J. Goings, B. Peng, A. Petrone, 
 T. Henderson, D. Ranasinghe, V. G. Zakrzewski, J. Gao, N. Rega, 
 G. Zheng, W. Liang, M. Hada, M. Ehara, K. Toyota, R. Fukuda, 
 J. Hasegawa, M. Ishida, T. Nakajima, Y. Honda, O. Kitao, H. Nakai, 
 T. Vreven, K. Throssell, J. A. Montgomery, Jr., J. E. Peralta, 
 F. Ogliaro, M. J. Bearpark, J. J. Heyd, E. N. Brothers, K. N. Kudin, 
 V. N. Staroverov, T. A. Keith, R. Kobayashi, J. Normand, 
 K. Raghavachari, A. P. Rendell, J. C. Burant, S. S. Iyengar, 
 J. Tomasi, M. Cossi, J. M. Millam, M. Klene, C. Adamo, R. Cammi, 
 J. W. Ochterski, R. L. Martin, K. Morokuma, O. Farkas, 
 J. B. Foresman, and D. J. Fox, Gaussian, Inc., Wallingford CT, 2019.
 
 ******************************************
 Gaussian 16:  ES64L-G16RevC.01  3-Jul-2019
                 3-Jun-2024 
 ******************************************
 %OldChk=b_18_v2_opt_c.chk
 %NProc=4
 Will use up to    4 processors via shared memory.
 %Chk=b_18_v2_n_c_geo.chk
 Copying data from "b_18_v2_opt_c.chk" to current chk file "b_18_v2_n_c_geo.chk"
 IOpt=  2 FromEx=T IUOpen= 4 IOptOp= 5 NList=   0 IFRang= 0 IUIn= 4 IUOut= 2.
 -------------------------------------------
 #p B3LYP/6-31G* SP, Geom=Checkpoint, nosymm
 -------------------------------------------
 1/29=2,38=1,172=1/1;
 2/12=2,15=1,40=1/2;
 3/5=1,6=6,7=1,11=2,14=-4,25=1,30=1,74=-5/1,2,3;
 4//1;
 5/5=2,38=5/2;
 6/7=2,8=2,9=2,10=2,28=1/1;
 99/5=1,9=1/99;
 Leave Link    1 at Mon Jun  3 12:23:02 2024, MaxMem=   104857600 cpu:               1.1 elap:               0.7
 (Enter /software/spackages_v0_21_prod/apps/linux-ubuntu22.04-zen2/gcc-13.2.0/gaussian_sse4-16-C-g6jkfwqig4o4stofyyxv7ma3rrfxhpfk/g16/l101.exe)
 ------------------------------------------------------------------
 b_18_v2 n_c_geo Smile String: COc1cc2cc(-c3nccc4nsnc34)n(C)c2cc1OC
 ------------------------------------------------------------------
 Structure from the checkpoint file:  "b_18_v2_n_c_geo.chk"
 Charge =  0 Multiplicity = 1
 Redundant internal coordinates found in file.  (old form).
 C,0,4.6231714086,2.0806074264,1.5608676484
 O,0,4.3803484945,0.8419876839,0.8828417034
 C,0,3.1196206191,0.5018258163,0.5999192114
 C,0,1.9894253395,1.2283082179,0.8946217396
 C,0,0.7269382702,0.7076788743,0.515511099
 C,0,-0.5771988412,1.1669018117,0.6540898302
 C,0,-1.4472571576,0.2102084071,0.0746299627
 C,0,-2.8957313653,0.3119006483,0.0104891454
 N,0,-3.5865500494,-0.6662764068,-0.5704180197
 C,0,-4.937130568,-0.6300126298,-0.6621783306
 C,0,-5.7276977784,0.3930249109,-0.1791085941
 C,0,-5.0558401618,1.466667775,0.4515411153
 N,0,-5.6235069429,2.556293219,0.9887969022
 S,0,-4.404821871,3.4684778608,1.5781500414
 N,0,-3.1190091643,2.526044312,1.1786769092
 C,0,-3.6123443795,1.4485846287,0.560612068
 N,0,-0.6788506415,-0.8460770414,-0.4248123375
 C,0,-1.070583265,-2.0815928198,-1.1121205767
 C,0,0.6416534816,-0.5643283267,-0.1678216021
 C,0,1.7665520689,-1.316332088,-0.4763788802
 C,0,3.0094860177,-0.7908711687,-0.0962841895
 O,0,4.1718731677,-1.3790173083,-0.3149180993
 C,0,4.2340898912,-2.6504051184,-0.9862074526
 H,0,5.7042853165,2.1389406705,1.6793373383
 H,0,4.1382104358,2.0839054825,2.5432493362
 H,0,4.2662113879,2.9249583041,0.9609337398
 H,0,2.0494868397,2.1807305834,1.4059574674
 H,0,-0.9092456003,2.0835020963,1.1146771877
 H,0,-5.3877843488,-1.4852135689,-1.1575585313
 H,0,-6.8077140584,0.3845231176,-0.2725912645
 H,0,-0.7331918858,-2.9442629396,-0.5285006503
 H,0,-0.6076347698,-2.107742759,-2.1039116543
 H,0,-2.1501195858,-2.1024529079,-1.2095554583
 H,0,1.6977664046,-2.2671045685,-0.9875106032
 H,0,3.8238170947,-2.5669925796,-1.9971685598
 H,0,3.695574009,-3.4103274115,-0.4118879118
 H,0,5.293722188,-2.8960422037,-1.0311497297
 Recover connectivity data from disk.
 ITRead=  0  0  0  0  0  0  0  0  0  0  0  0  0  0  0  0  0  0  0  0
 ITRead=  0  0  0  0  0  0  0  0  0  0  0  0  0  0  0  0  0
 MicOpt= -1 -1 -1 -1 -1 -1 -1 -1 -1 -1 -1 -1 -1 -1 -1 -1 -1 -1 -1 -1
 MicOpt= -1 -1 -1 -1 -1 -1 -1 -1 -1 -1 -1 -1 -1 -1 -1 -1 -1
                           ----------------------------
                           !    Current Parameters    !
                           ! (Angstroms and Degrees)  !
 --------------------------                            --------------------------
 ! Name  Definition              Value                                          !
 --------------------------------------------------------------------------------
 ! R1    R(1,2)                  1.4328                                         !
 ! R2    R(1,24)                 1.0891                                         !
 ! R3    R(1,25)                 1.0956                                         !
 ! R4    R(1,26)                 1.0956                                         !
 ! R5    R(2,3)                  1.3361                                         !
 ! R6    R(3,4)                  1.3755                                         !
 ! R7    R(3,21)                 1.4724                                         !
 ! R8    R(4,5)                  1.4173                                         !
 ! R9    R(4,27)                 1.0827                                         !
 ! R10   R(5,6)                  1.3896                                         !
 ! R11   R(5,19)                 1.4465                                         !
 ! R12   R(6,7)                  1.4171                                         !
 ! R13   R(6,28)                 1.0782                                         !
 ! R14   R(7,8)                  1.4535                                         !
 ! R15   R(7,17)                 1.3984                                         !
 ! R16   R(8,9)                  1.331                                          !
 ! R17   R(8,16)                 1.452                                          !
 ! R18   R(9,10)                 1.3542                                         !
 ! R19   R(10,11)                1.3802                                         !
 ! R20   R(10,29)                1.0862                                         !
 ! R21   R(11,12)                1.4149                                         !
 ! R22   R(11,30)                1.0841                                         !
 ! R23   R(12,13)                1.341                                          !
 ! R24   R(12,16)                1.4477                                         !
 ! R25   R(13,14)                1.6324                                         !
 ! R26   R(14,15)                1.6435                                         !
 ! R27   R(15,16)                1.3365                                         !
 ! R28   R(17,18)                1.4671                                         !
 ! R29   R(17,19)                1.3745                                         !
 ! R30   R(18,31)                1.0948                                         !
 ! R31   R(18,32)                1.0948                                         !
 ! R32   R(18,33)                1.0841                                         !
 ! R33   R(19,20)                1.3878                                         !
 ! R34   R(20,21)                1.402                                          !
 ! R35   R(20,34)                1.0816                                         !
 ! R36   R(21,22)                1.3209                                         !
 ! R37   R(22,23)                1.4391                                         !
 ! R38   R(23,35)                1.0942                                         !
 ! R39   R(23,36)                1.0942                                         !
 ! R40   R(23,37)                1.0887                                         !
 ! A1    A(2,1,24)             105.4264                                         !
 ! A2    A(2,1,25)             110.6045                                         !
 ! A3    A(2,1,26)             110.6036                                         !
 ! A4    A(24,1,25)            109.9802                                         !
 ! A5    A(24,1,26)            109.9808                                         !
 ! A6    A(25,1,26)            110.15                                           !
 ! A7    A(1,2,3)              118.6992                                         !
 ! A8    A(2,3,4)              126.5466                                         !
 ! A9    A(2,3,21)             113.2178                                         !
 ! A10   A(4,3,21)             120.2356                                         !
 ! A11   A(3,4,5)              118.7247                                         !
 ! A12   A(3,4,27)             121.3477                                         !
 ! A13   A(5,4,27)             119.9276                                         !
 ! A14   A(4,5,6)              133.4682                                         !
 ! A15   A(4,5,19)             120.1282                                         !
 ! A16   A(6,5,19)             106.4036                                         !
 ! A17   A(5,6,7)              108.2009                                         !
 ! A18   A(5,6,28)             127.7759                                         !
 ! A19   A(7,6,28)             124.0232                                         !
 ! A20   A(6,7,8)              125.6405                                         !
 ! A21   A(6,7,17)             108.5793                                         !
 ! A22   A(8,7,17)             125.7803                                         !
 ! A23   A(7,8,9)              119.0184                                         !
 ! A24   A(7,8,16)             121.9992                                         !
 ! A25   A(9,8,16)             118.9824                                         !
 ! A26   A(8,9,10)             121.8396                                         !
 ! A27   A(9,10,11)            124.5692                                         !
 ! A28   A(9,10,29)            115.0622                                         !
 ! A29   A(11,10,29)           120.3686                                         !
 ! A30   A(10,11,12)           116.5179                                         !
 ! A31   A(10,11,30)           122.3199                                         !
 ! A32   A(12,11,30)           121.1622                                         !
 ! A33   A(11,12,13)           126.4534                                         !
 ! A34   A(11,12,16)           119.8397                                         !
 ! A35   A(13,12,16)           113.7069                                         !
 ! A36   A(12,13,14)           106.4202                                         !
 ! A37   A(13,14,15)           100.1309                                         !
 ! A38   A(14,15,16)           106.6126                                         !
 ! A39   A(8,16,12)            118.2512                                         !
 ! A40   A(8,16,15)            128.6194                                         !
 ! A41   A(12,16,15)           113.1295                                         !
 ! A42   A(7,17,18)            131.0491                                         !
 ! A43   A(7,17,19)            107.8359                                         !
 ! A44   A(18,17,19)           121.115                                          !
 ! A45   A(17,18,31)           109.3633                                         !
 ! A46   A(17,18,32)           109.366                                          !
 ! A47   A(17,18,33)           108.9167                                         !
 ! A48   A(31,18,32)           109.4979                                         !
 ! A49   A(31,18,33)           109.8533                                         !
 ! A50   A(32,18,33)           109.8272                                         !
 ! A51   A(5,19,17)            108.9803                                         !
 ! A52   A(5,19,20)            122.2588                                         !
 ! A53   A(17,19,20)           128.7609                                         !
 ! A54   A(19,20,21)           117.08                                           !
 ! A55   A(19,20,34)           121.9923                                         !
 ! A56   A(21,20,34)           120.9276                                         !
 ! A57   A(3,21,20)            121.5727                                         !
 ! A58   A(3,21,22)            113.7881                                         !
 ! A59   A(20,21,22)           124.6392                                         !
 ! A60   A(21,22,23)           120.5721                                         !
 ! A61   A(22,23,35)           110.3297                                         !
 ! A62   A(22,23,36)           110.3314                                         !
 ! A63   A(22,23,37)           105.1104                                         !
 ! A64   A(35,23,36)           110.6918                                         !
 ! A65   A(35,23,37)           110.1212                                         !
 ! A66   A(36,23,37)           110.1202                                         !
 ! D1    D(24,1,2,3)          -179.9949                                         !
 ! D2    D(25,1,2,3)            61.1606                                         !
 ! D3    D(26,1,2,3)           -61.1502                                         !
 ! D4    D(1,2,3,4)             -0.0047                                         !
 ! D5    D(1,2,3,21)           179.9932                                         !
 ! D6    D(2,3,4,5)            179.9958                                         !
 ! D7    D(2,3,4,27)            -0.0077                                         !
 ! D8    D(21,3,4,5)            -0.0021                                         !
 ! D9    D(21,3,4,27)          179.9945                                         !
 ! D10   D(2,3,21,20)         -179.996                                          !
 ! D11   D(2,3,21,22)           -0.0018                                         !
 ! D12   D(4,3,21,20)            0.0021                                         !
 ! D13   D(4,3,21,22)          179.9963                                         !
 ! D14   D(3,4,5,6)            179.9964                                         !
 ! D15   D(3,4,5,19)            -0.0037                                         !
 ! D16   D(27,4,5,6)            -0.0003                                         !
 ! D17   D(27,4,5,19)          179.9997                                         !
 ! D18   D(4,5,6,7)            179.9908                                         !
 ! D19   D(4,5,6,28)            -0.0032                                         !
 ! D20   D(19,5,6,7)            -0.0091                                         !
 ! D21   D(19,5,6,28)          179.9969                                         !
 ! D22   D(4,5,19,17)         -179.9917                                         !
 ! D23   D(4,5,19,20)            0.0101                                         !
 ! D24   D(6,5,19,17)            0.0082                                         !
 ! D25   D(6,5,19,20)         -179.99                                           !
 ! D26   D(5,6,7,8)           -179.9648                                         !
 ! D27   D(5,6,7,17)             0.0069                                         !
 ! D28   D(28,6,7,8)             0.0295                                         !
 ! D29   D(28,6,7,17)         -179.9987                                         !
 ! D30   D(6,7,8,9)            179.7982                                         !
 ! D31   D(6,7,8,16)            -0.183                                          !
 ! D32   D(17,7,8,9)            -0.1688                                         !
 ! D33   D(17,7,8,16)          179.85                                           !
 ! D34   D(6,7,17,18)          179.9258                                         !
 ! D35   D(6,7,17,19)           -0.0017                                         !
 ! D36   D(8,7,17,18)           -0.1024                                         !
 ! D37   D(8,7,17,19)          179.97                                           !
 ! D38   D(7,8,9,10)          -179.9752                                         !
 ! D39   D(16,8,9,10)            0.0066                                         !
 ! D40   D(7,8,16,12)          179.978                                          !
 ! D41   D(7,8,16,15)           -0.0283                                         !
 ! D42   D(9,8,16,12)           -0.0032                                         !
 ! D43   D(9,8,16,15)          179.9905                                         !
 ! D44   D(8,9,10,11)           -0.0038                                         !
 ! D45   D(8,9,10,29)          179.9935                                         !
 ! D46   D(9,10,11,12)          -0.0026                                         !
 ! D47   D(9,10,11,30)         179.9994                                         !
 ! D48   D(29,10,11,12)       -179.9998                                         !
 ! D49   D(29,10,11,30)          0.0022                                         !
 ! D50   D(10,11,12,13)       -179.9933                                         !
 ! D51   D(10,11,12,16)          0.0057                                         !
 ! D52   D(30,11,12,13)          0.0048                                         !
 ! D53   D(30,11,12,16)       -179.9962                                         !
 ! D54   D(11,12,13,14)        179.9919                                         !
 ! D55   D(16,12,13,14)         -0.0072                                         !
 ! D56   D(11,12,16,8)          -0.003                                          !
 ! D57   D(11,12,16,15)       -179.9976                                         !
 ! D58   D(13,12,16,8)         179.9961                                         !
 ! D59   D(13,12,16,15)          0.0015                                         !
 ! D60   D(12,13,14,15)          0.009                                          !
 ! D61   D(13,14,15,16)         -0.0083                                         !
 ! D62   D(14,15,16,8)        -179.989                                          !
 ! D63   D(14,15,16,12)          0.005                                          !
 ! D64   D(7,17,18,31)        -120.059                                          !
 ! D65   D(7,17,18,32)         120.0384                                         !
 ! D66   D(7,17,18,33)           0.0048                                         !
 ! D67   D(19,17,18,31)         59.8605                                         !
 ! D68   D(19,17,18,32)        -60.0421                                         !
 ! D69   D(19,17,18,33)        179.9242                                         !
 ! D70   D(7,17,19,5)           -0.004                                          !
 ! D71   D(7,17,19,20)         179.9941                                         !
 ! D72   D(18,17,19,5)        -179.9402                                         !
 ! D73   D(18,17,19,20)          0.0579                                         !
 ! D74   D(5,19,20,21)          -0.0098                                         !
 ! D75   D(5,19,20,34)         179.9978                                         !
 ! D76   D(17,19,20,21)        179.9924                                         !
 ! D77   D(17,19,20,34)          0.0                                            !
 ! D78   D(19,20,21,3)           0.0038                                         !
 ! D79   D(19,20,21,22)       -179.9898                                         !
 ! D80   D(34,20,21,3)         179.9963                                         !
 ! D81   D(34,20,21,22)          0.0027                                         !
 ! D82   D(3,21,22,23)        -179.9852                                         !
 ! D83   D(20,21,22,23)          0.0088                                         !
 ! D84   D(21,22,23,35)         61.3035                                         !
 ! D85   D(21,22,23,36)        -61.321                                          !
 ! D86   D(21,22,23,37)        179.9913                                         !
 --------------------------------------------------------------------------------
 NAtoms=     37 NQM=       37 NQMF=       0 NMMI=      0 NMMIF=      0
                NMic=       0 NMicF=      0.
                    Isotopes and Nuclear Properties:
 (Nuclear quadrupole moments (NQMom) in fm**2, nuclear magnetic moments (NMagM)
  in nuclear magnetons)

  Atom         1           2           3           4           5           6           7           8           9          10
 IAtWgt=          12          16          12          12          12          12          12          12          14          12
 AtmWgt=  12.0000000  15.9949146  12.0000000  12.0000000  12.0000000  12.0000000  12.0000000  12.0000000  14.0030740  12.0000000
 NucSpn=           0           0           0           0           0           0           0           0           2           0
 AtZEff=   3.6000000   5.6000000   3.6000000   3.6000000   3.6000000   3.6000000   3.6000000   3.6000000   4.5500000   3.6000000
 NQMom=    0.0000000   0.0000000   0.0000000   0.0000000   0.0000000   0.0000000   0.0000000   0.0000000   2.0440000   0.0000000
 NMagM=    0.0000000   0.0000000   0.0000000   0.0000000   0.0000000   0.0000000   0.0000000   0.0000000   0.4037610   0.0000000
 AtZNuc=   6.0000000   8.0000000   6.0000000   6.0000000   6.0000000   6.0000000   6.0000000   6.0000000   7.0000000   6.0000000

  Atom        11          12          13          14          15          16          17          18          19          20
 IAtWgt=          12          12          14          32          14          12          14          12          12          12
 AtmWgt=  12.0000000  12.0000000  14.0030740  31.9720718  14.0030740  12.0000000  14.0030740  12.0000000  12.0000000  12.0000000
 NucSpn=           0           0           2           0           2           0           2           0           0           0
 AtZEff=   3.6000000   3.6000000   4.5500000  13.6000000   4.5500000   3.6000000   4.5500000   3.6000000   3.6000000   3.6000000
 NQMom=    0.0000000   0.0000000   2.0440000   0.0000000   2.0440000   0.0000000   2.0440000   0.0000000   0.0000000   0.0000000
 NMagM=    0.0000000   0.0000000   0.4037610   0.0000000   0.4037610   0.0000000   0.4037610   0.0000000   0.0000000   0.0000000
 AtZNuc=   6.0000000   6.0000000   7.0000000  16.0000000   7.0000000   6.0000000   7.0000000   6.0000000   6.0000000   6.0000000

  Atom        21          22          23          24          25          26          27          28          29          30
 IAtWgt=          12          16          12           1           1           1           1           1           1           1
 AtmWgt=  12.0000000  15.9949146  12.0000000   1.0078250   1.0078250   1.0078250   1.0078250   1.0078250   1.0078250   1.0078250
 NucSpn=           0           0           0           1           1           1           1           1           1           1
 AtZEff=   3.6000000   5.6000000   3.6000000   1.0000000   1.0000000   1.0000000   1.0000000   1.0000000   1.0000000   1.0000000
 NQMom=    0.0000000   0.0000000   0.0000000   0.0000000   0.0000000   0.0000000   0.0000000   0.0000000   0.0000000   0.0000000
 NMagM=    0.0000000   0.0000000   0.0000000   2.7928460   2.7928460   2.7928460   2.7928460   2.7928460   2.7928460   2.7928460
 AtZNuc=   6.0000000   8.0000000   6.0000000   1.0000000   1.0000000   1.0000000   1.0000000   1.0000000   1.0000000   1.0000000

  Atom        31          32          33          34          35          36          37
 IAtWgt=           1           1           1           1           1           1           1
 AtmWgt=   1.0078250   1.0078250   1.0078250   1.0078250   1.0078250   1.0078250   1.0078250
 NucSpn=           1           1           1           1           1           1           1
 AtZEff=   1.0000000   1.0000000   1.0000000   1.0000000   1.0000000   1.0000000   1.0000000
 NQMom=    0.0000000   0.0000000   0.0000000   0.0000000   0.0000000   0.0000000   0.0000000
 NMagM=    2.7928460   2.7928460   2.7928460   2.7928460   2.7928460   2.7928460   2.7928460
 AtZNuc=   1.0000000   1.0000000   1.0000000   1.0000000   1.0000000   1.0000000   1.0000000
 Leave Link  101 at Mon Jun  3 12:23:02 2024, MaxMem=   104857600 cpu:               0.6 elap:               0.4
 (Enter /software/spackages_v0_21_prod/apps/linux-ubuntu22.04-zen2/gcc-13.2.0/gaussian_sse4-16-C-g6jkfwqig4o4stofyyxv7ma3rrfxhpfk/g16/l202.exe)
                          Input orientation:                          
 ---------------------------------------------------------------------
 Center     Atomic      Atomic             Coordinates (Angstroms)
 Number     Number       Type             X           Y           Z
 ---------------------------------------------------------------------
      1          6           0        4.623171    2.080607    1.560868
      2          8           0        4.380348    0.841988    0.882842
      3          6           0        3.119621    0.501826    0.599919
      4          6           0        1.989425    1.228308    0.894622
      5          6           0        0.726938    0.707679    0.515511
      6          6           0       -0.577199    1.166902    0.654090
      7          6           0       -1.447257    0.210208    0.074630
      8          6           0       -2.895731    0.311901    0.010489
      9          7           0       -3.586550   -0.666276   -0.570418
     10          6           0       -4.937131   -0.630013   -0.662178
     11          6           0       -5.727698    0.393025   -0.179109
     12          6           0       -5.055840    1.466668    0.451541
     13          7           0       -5.623507    2.556293    0.988797
     14         16           0       -4.404822    3.468478    1.578150
     15          7           0       -3.119009    2.526044    1.178677
     16          6           0       -3.612344    1.448585    0.560612
     17          7           0       -0.678851   -0.846077   -0.424812
     18          6           0       -1.070583   -2.081593   -1.112121
     19          6           0        0.641653   -0.564328   -0.167822
     20          6           0        1.766552   -1.316332   -0.476379
     21          6           0        3.009486   -0.790871   -0.096284
     22          8           0        4.171873   -1.379017   -0.314918
     23          6           0        4.234090   -2.650405   -0.986207
     24          1           0        5.704285    2.138941    1.679337
     25          1           0        4.138210    2.083905    2.543249
     26          1           0        4.266211    2.924958    0.960934
     27          1           0        2.049487    2.180731    1.405957
     28          1           0       -0.909246    2.083502    1.114677
     29          1           0       -5.387784   -1.485214   -1.157559
     30          1           0       -6.807714    0.384523   -0.272591
     31          1           0       -0.733192   -2.944263   -0.528501
     32          1           0       -0.607635   -2.107743   -2.103912
     33          1           0       -2.150120   -2.102453   -1.209555
     34          1           0        1.697766   -2.267105   -0.987511
     35          1           0        3.823817   -2.566993   -1.997169
     36          1           0        3.695574   -3.410327   -0.411888
     37          1           0        5.293722   -2.896042   -1.031150
 ---------------------------------------------------------------------
                    Distance matrix (angstroms):
                    1          2          3          4          5
     1  C    0.000000
     2  O    1.432781   0.000000
     3  C    2.382570   1.336110   0.000000
     4  C    2.847265   2.421961   1.375488   0.000000
     5  C    4.261260   3.674286   2.403004   1.417270   0.000000
     6  C    5.357327   4.973447   3.756559   2.578602   1.389555
     7  C    6.523603   5.917207   4.606229   3.676915   2.273539
     8  C    7.878191   7.347335   6.047145   5.048391   3.679052
     9  N    8.915564   8.237615   6.907017   6.068550   4.655446
    10  C   10.182768   9.558728   8.233176   7.338539   5.937849
    11  C   10.630896  10.173589   8.882216   7.836108   6.499525
    12  C    9.761700   9.466673   8.233535   7.063208   5.832725
    13  N   10.273654  10.150231   8.989680   7.728464   6.630952
    14  S    9.134065   9.195712   8.147097   6.809697   5.923358
    15  N    7.764396   7.691809   6.584294   5.278343   4.305526
    16  C    8.320077   8.022153   6.798327   5.616040   4.402312
    17  N    6.373370   5.491358   4.158762   3.628178   2.296651
    18  C    7.542388   6.499220   5.211808   4.934178   3.695985
    19  C    5.082965   4.130310   2.804716   2.481697   1.446451
    20  C    4.883630   3.652089   2.508966   2.899053   2.482189
    21  C    3.687211   2.346099   1.472377   2.469717   2.798208
    22  O    3.961218   2.531986   2.341310   3.608907   4.112358
    23  C    5.387157   3.963779   3.700594   4.860088   5.082519
    24  H    1.089149   2.017251   3.244346   3.904512   5.308200
    25  H    1.095569   2.087569   2.705002   2.840299   4.200298
    26  H    1.095568   2.087557   2.704916   2.840207   4.200141
    27  H    2.580286   2.738393   2.147930   1.082673   2.170694
    28  H    5.550381   5.438282   4.358720   3.030194   2.220132
    29  H   10.969237  10.246732   8.911397   8.123907   6.708038
    30  H   11.700573  11.256866   9.966294   8.914259   7.582646
    31  H    7.635798   6.517352   5.290843   5.181532   4.069228
    32  H    7.637684   6.519324   5.292729   5.183161   4.070511
    33  H    8.429158   7.462900   6.150336   5.714662   4.376089
    34  H    5.827077   4.512308   3.494078   3.980628   3.471443
    35  H    5.907518   4.497258   4.081471   5.111923   5.160203
    36  H    5.907839   4.497491   4.081718   5.112226   5.160508
    37  H    5.651127   4.297730   4.351162   5.624699   6.019508
                    6          7          8          9         10
     6  C    0.000000
     7  C    1.417052   0.000000
     8  C    2.553594   1.453455   0.000000
     9  N    3.730437   2.400185   1.330982   0.000000
    10  C    4.895964   3.664434   2.346698   1.354180   0.000000
    11  C    5.274537   4.291850   2.839465   2.420693   1.380202
    12  C    4.493230   3.839612   2.488792   2.784361   2.377085
    13  N    5.244775   4.876564   3.665398   4.118895   3.653680
    14  S    4.560903   4.650170   3.833914   4.730973   4.701069
    15  N    2.929720   3.062151   2.513354   3.669992   4.081055
    16  C    3.049622   2.541133   1.451971   2.398444   2.751516
    17  N    2.286142   1.398438   2.538693   2.916890   4.270360
    18  C    3.730368   2.608182   3.212511   2.937116   4.154482
    19  C    2.271188   2.241035   3.648652   4.248551   5.601030
    20  C    3.596885   3.600348   4.962365   5.393247   6.741285
    21  C    4.154545   4.570988   6.008253   6.614228   7.968364
    22  O    5.474885   5.852522   7.274347   7.795281   9.146341
    23  C    6.356957   6.448736   7.784794   8.079112   9.396716
    24  H    6.438403   7.578895   8.948934   9.962443  11.242310
    25  H    5.161870   6.387666   7.683177   8.770995  10.000097
    26  H    5.161738   6.387419   7.682762   8.769713   9.998691
    27  H    2.914212   4.228783   5.467636   6.616375   7.809628
    28  H    1.078217   2.209159   2.881654   4.191514   5.171483
    29  H    5.784247   4.463239   3.286987   2.063937   1.086213
    30  H    6.347454   5.374518   3.922884   3.401291   2.163364
    31  H    4.280716   3.290037   3.945844   3.651388   4.800700
    32  H    4.281448   3.289971   3.944712   3.647378   4.796542
    33  H    4.078717   2.737070   2.805984   2.129421   3.199239
    34  H    4.434266   4.142028   5.361669   5.537203   6.841620
    35  H    6.351384   6.307885   7.580966   7.782151   9.071290
    36  H    6.351687   6.308224   7.581470   7.783590   9.072838
    37  H    7.335889   7.504155   8.856809   9.167517  10.485293
                   11         12         13         14         15
    11  C    0.000000
    12  C    1.414857   0.000000
    13  N    2.460607   1.340960   0.000000
    14  S    3.781054   2.387533   1.632364   0.000000
    15  N    3.632989   2.324289   2.511868   1.643494   0.000000
    16  C    2.477118   1.447724   2.335623   2.396533   1.336527
    17  N    5.204479   5.027407   6.166364   6.042359   4.460578
    18  C    5.355647   5.560347   6.830297   7.011276   5.538422
    19  C    6.440907   6.080295   7.094243   6.691701   5.050351
    20  C    7.692467   7.426383   8.470947   8.074735   6.432089
    21  C    8.817417   8.393216   9.322525   8.713079   7.084201
    22  O   10.057837   9.686902  10.636532  10.032029   8.404600
    23  C   10.447540  10.262564  11.321774  10.892541   9.249347
    24  H   11.712911  10.850794  11.356492  10.196664   8.845962
    25  H   10.373353   9.449169   9.895989   8.708149   7.397620
    26  H   10.372493   9.449166   9.896627   8.709948   7.399191
    27  H    8.135904   7.204614   7.693498   6.583771   5.185002
    28  H    5.267739   4.244347   4.739582   3.788406   2.254550
    29  H    2.144921   3.378312   4.582159   5.743638   5.166771
    30  H    1.084088   2.182766   2.776694   4.325495   4.505423
    31  H    6.017030   6.253166   7.514885   7.683885   6.207322
    32  H    6.014462   6.252462   7.515122   7.685730   6.209217
    33  H    4.481997   4.892962   6.212977   6.624972   5.297678
    34  H    7.928892   7.850040   8.987324   8.759058   7.132179
    35  H   10.163586  10.055591  11.154191  10.812969   9.177574
    36  H   10.164533  10.055737  11.153822  10.811782   9.176543
    37  H   11.533240  11.328947  12.369076  11.890219  10.249703
                   16         17         18         19         20
    16  C    0.000000
    17  N    3.852521   0.000000
    18  C    4.660551   1.467088   0.000000
    19  C    4.762240   1.374466   2.474984   0.000000
    20  C    6.136175   2.490742   3.006514   1.387845   0.000000
    21  C    7.021062   3.703351   4.398278   2.379721   1.401951
    22  O    8.328021   4.881150   5.349065   3.625990   2.411549
    23  C    8.986707   5.263815   5.336568   4.234037   2.851038
    24  H    9.408917   7.354060   8.456003   6.029088   5.664959
    25  H    8.025309   6.371677   7.605566   5.156448   5.128795
    26  H    8.025682   6.371392   7.605556   5.156222   5.128617
    27  H    5.771220   4.467338   5.851748   3.463253   3.981544
    28  H    2.831404   3.317460   4.725746   3.325823   4.609797
    29  H    3.835553   4.808271   4.358435   6.179137   7.188676
    30  H    3.469415   6.253040   6.300889   7.510284   8.743711
    31  H    5.364028   2.101449   1.094826   2.772071   2.983554
    32  H    5.364274   2.101487   1.094831   2.773318   2.985290
    33  H    4.228648   2.087806   1.084125   3.353362   4.061508
    34  H    6.663356   2.825643   2.777355   2.164881   1.081645
    35  H    8.829700   5.070293   4.997407   4.181308   2.847682
    36  H    8.829522   5.070615   4.997211   4.181592   2.847824
    37  H   10.036310   6.343629   6.416718   5.274843   3.904380
                   21         22         23         24         25
    21  C    0.000000
    22  O    1.320932   0.000000
    23  C    2.397808   1.439072   0.000000
    24  H    4.358735   4.324508   5.674895   0.000000
    25  H    4.062696   4.490221   5.905925   1.789403   0.000000
    26  H    4.062568   4.490089   5.905681   1.789409   1.796518
    27  H    3.465364   4.487509   5.816770   3.665247   2.380247
    28  H    5.008483   6.312729   7.299143   6.637824   5.245725
    29  H    8.492500   9.597311   9.693683  12.009017  10.824933
    30  H    9.888885  11.120396  11.473512  12.784292  11.429354
    31  H    4.339533   5.153181   4.996973   8.494388   7.645174
    32  H    4.341461   5.155117   4.998604   8.496330   7.854239
    33  H    5.438856   6.425833   6.411573   9.382260   8.435178
    34  H    2.166601   2.713353   2.565123   6.525144   6.111736
    35  H    2.726005   2.088635   1.094223   6.260884   6.507311
    36  H    2.726146   2.088656   1.094223   6.261192   6.254227
    37  H    3.243987   2.018142   1.088659   5.732919   6.237901
                   26         27         28         29         30
    26  H    0.000000
    27  H    2.380292   0.000000
    28  H    5.245669   2.974625   0.000000
    29  H   10.822997   8.678926   6.160852   0.000000
    30  H   11.428352   9.192056   6.293089   2.509040   0.000000
    31  H    7.852401   6.144183   5.292395   4.918310   6.931531
    32  H    7.646943   6.145769   5.293091   4.912531   6.928644
    33  H    8.435354   6.543949   4.946114   3.296386   5.362475
    34  H    6.111535   5.063164   5.490308   7.130589   8.937865
    35  H    6.253607   6.104948   7.328886   9.312829  11.167590
    36  H    6.507389   6.105251   7.329183   9.315014  11.168677
    37  H    6.237646   6.499090   8.238765  10.775017  12.561142
                   31         32         33         34         35
    31  H    0.000000
    32  H    1.788142   0.000000
    33  H    1.783301   1.783020   0.000000
    34  H    2.564916   2.566442   3.857803   0.000000
    35  H    4.802671   4.456464   6.043513   2.372643   0.000000
    36  H    4.454748   4.803881   6.043091   2.372664   1.800215
    37  H    6.048031   6.049649   7.488150   3.650803   1.789438
                   36         37
    36  H    0.000000
    37  H    1.789428   0.000000
 Symmetry turned off by external request.
 Stoichiometry    C16H14N4O2S
 Framework group  C1[X(C16H14N4O2S)]
 Deg. of freedom   105
 Full point group                 C1      NOp   1
 Rotational constants (GHZ):           0.5284151           0.1168659           0.0958774
 Leave Link  202 at Mon Jun  3 12:23:03 2024, MaxMem=   104857600 cpu:               0.1 elap:               0.1
 (Enter /software/spackages_v0_21_prod/apps/linux-ubuntu22.04-zen2/gcc-13.2.0/gaussian_sse4-16-C-g6jkfwqig4o4stofyyxv7ma3rrfxhpfk/g16/l301.exe)
 Standard basis: 6-31G(d) (6D, 7F)
 Ernie: Thresh=  0.10000D-02 Tol=  0.10000D-05 Strict=F.
   377 basis functions,   724 primitive gaussians,   377 cartesian basis functions
    85 alpha electrons       85 beta electrons
       nuclear repulsion energy      1942.5803676650 Hartrees.
 IExCor=  402 DFT=T Ex+Corr=B3LYP ExCW=0 ScaHFX=  0.200000
 ScaDFX=  0.800000  0.720000  1.000000  0.810000 ScalE2=  1.000000  1.000000
 IRadAn=      5 IRanWt=     -1 IRanGd=            0 ICorTp=0 IEmpDi=  4
 NAtoms=   37 NActive=   37 NUniq=   37 SFac= 1.00D+00 NAtFMM=   60 NAOKFM=F Big=F
 Integral buffers will be    131072 words long.
 Raffenetti 2 integral format.
 Two-electron integral symmetry is turned off.
 Leave Link  301 at Mon Jun  3 12:23:03 2024, MaxMem=   104857600 cpu:               0.1 elap:               0.1
 (Enter /software/spackages_v0_21_prod/apps/linux-ubuntu22.04-zen2/gcc-13.2.0/gaussian_sse4-16-C-g6jkfwqig4o4stofyyxv7ma3rrfxhpfk/g16/l302.exe)
 NPDir=0 NMtPBC=     1 NCelOv=     1 NCel=       1 NClECP=     1 NCelD=      1
         NCelK=      1 NCelE2=     1 NClLst=     1 CellRange=     0.0.
 One-electron integrals computed using PRISM.
 NBasis=   377 RedAO= T EigKep=  3.22D-04  NBF=   377
 NBsUse=   377 1.00D-06 EigRej= -1.00D+00 NBFU=   377
 Precomputing XC quadrature grid using
 IXCGrd= 4 IRadAn=           5 IRanWt=          -1 IRanGd=           0 AccXCQ= 0.00D+00.
 Generated NRdTot=       0 NPtTot=           0 NUsed=           0 NTot=          32
 NSgBfM=   372   372   372   372   372 MxSgAt=    37 MxSgA2=    37.
 Leave Link  302 at Mon Jun  3 12:23:05 2024, MaxMem=   104857600 cpu:               4.4 elap:               2.3
 (Enter /software/spackages_v0_21_prod/apps/linux-ubuntu22.04-zen2/gcc-13.2.0/gaussian_sse4-16-C-g6jkfwqig4o4stofyyxv7ma3rrfxhpfk/g16/l303.exe)
 DipDrv:  MaxL=1.
 Leave Link  303 at Mon Jun  3 12:23:05 2024, MaxMem=   104857600 cpu:               0.5 elap:               0.3
 (Enter /software/spackages_v0_21_prod/apps/linux-ubuntu22.04-zen2/gcc-13.2.0/gaussian_sse4-16-C-g6jkfwqig4o4stofyyxv7ma3rrfxhpfk/g16/l401.exe)
 ExpMin= 1.17D-01 ExpMax= 2.19D+04 ExpMxC= 3.30D+03 IAcc=3 IRadAn=         5 AccDes= 0.00D+00
 Harris functional with IExCor=  402 and IRadAn=       5 diagonalized for initial guess.
 HarFok:  IExCor=  402 AccDes= 0.00D+00 IRadAn=         5 IDoV= 1 UseB2=F ITyADJ=14
 ICtDFT=  3500011 ScaDFX=  1.000000  1.000000  1.000000  1.000000
 FoFCou: FMM=F IPFlag=           0 FMFlag=      100000 FMFlg1=           0
         NFxFlg=           0 DoJE=T BraDBF=F KetDBF=T FulRan=T
         wScrn=  0.000000 ICntrl=       500 IOpCl=  0 I1Cent=   200000004 NGrid=           0
         NMat0=    1 NMatS0=      1 NMatT0=    0 NMatD0=    1 NMtDS0=    0 NMtDT0=    0
 Symmetry not used in FoFCou.
 Harris En= -1385.64056483754    
 JPrj=0 DoOrth=F DoCkMO=F.
 Leave Link  401 at Mon Jun  3 12:23:15 2024, MaxMem=   104857600 cpu:              18.4 elap:               9.2
 (Enter /software/spackages_v0_21_prod/apps/linux-ubuntu22.04-zen2/gcc-13.2.0/gaussian_sse4-16-C-g6jkfwqig4o4stofyyxv7ma3rrfxhpfk/g16/l502.exe)
 Two-electron integral symmetry not used.
 Closed shell SCF:
 Using DIIS extrapolation, IDIIS=  1040.
 NGot=   104857600 LenX=   104567031 LenY=   104424461
 Requested convergence on RMS density matrix=1.00D-08 within 128 cycles.
 Requested convergence on MAX density matrix=1.00D-06.
 Requested convergence on             energy=1.00D-06.
 No special actions if energy rises.
 Fock matrices will be formed incrementally for  20 cycles.
 Integral accuracy reduced to 1.0D-05 until final iterations.

 Cycle   1  Pass 0  IDiag  1:
 FoFJK:  IHMeth= 1 ICntrl=       0 DoSepK=F KAlg= 0 I1Cent=           0 FoldK=F
 IRaf= 710000000 NMat=       1 IRICut=       1 DoRegI=T DoRafI=F ISym2E= 0 IDoP0=0 IntGTp=1.
 FoFCou: FMM=F IPFlag=           0 FMFlag=      100000 FMFlg1=           0
         NFxFlg=           0 DoJE=F BraDBF=F KetDBF=F FulRan=T
         wScrn=  0.000000 ICntrl=         0 IOpCl=  0 I1Cent=           0 NGrid=           0
         NMat0=    1 NMatS0=      1 NMatT0=    0 NMatD0=    1 NMtDS0=    0 NMtDT0=    0
 Symmetry not used in FoFCou.
 E= -1385.16448188952    
 DIIS: error= 3.00D-02 at cycle   1 NSaved=   1.
 NSaved= 1 IEnMin= 1 EnMin= -1385.16448188952     IErMin= 1 ErrMin= 3.00D-02
 ErrMax= 3.00D-02  0.00D+00 EMaxC= 1.00D-01 BMatC= 5.27D-01 BMatP= 5.27D-01
 IDIUse=3 WtCom= 7.00D-01 WtEn= 3.00D-01
 Coeff-Com:  0.100D+01
 Coeff-En:   0.100D+01
 Coeff:      0.100D+01
 Gap=     0.044 Goal=   None    Shift=    0.000
 GapD=    0.044 DampG=0.250 DampE=0.500 DampFc=0.2500 IDamp=-1.
 Damping current iteration by 2.50D-01
 RMSDP=9.07D-03 MaxDP=8.98D-01              OVMax= 7.71D-01

 Cycle   2  Pass 0  IDiag  1:
 RMSU=  2.26D-03    CP:  9.89D-01
 E= -1385.28673231479     Delta-E=       -0.122250425273 Rises=F Damp=T
 DIIS: error= 1.43D-02 at cycle   2 NSaved=   2.
 NSaved= 2 IEnMin= 2 EnMin= -1385.28673231479     IErMin= 2 ErrMin= 1.43D-02
 ErrMax= 1.43D-02  0.00D+00 EMaxC= 1.00D-01 BMatC= 1.17D-01 BMatP= 5.27D-01
 IDIUse=3 WtCom= 8.57D-01 WtEn= 1.43D-01
 Coeff-Com: -0.421D+00 0.142D+01
 Coeff-En:   0.219D+00 0.781D+00
 Coeff:     -0.329D+00 0.133D+01
 Gap=     0.094 Goal=   None    Shift=    0.000
 RMSDP=3.12D-03 MaxDP=2.20D-01 DE=-1.22D-01 OVMax= 7.12D-01

 Cycle   3  Pass 0  IDiag  1:
 RMSU=  2.76D-03    CP:  9.64D-01  3.89D-01
 E= -1385.44812325785     Delta-E=       -0.161390943062 Rises=F Damp=F
 DIIS: error= 2.86D-02 at cycle   3 NSaved=   3.
 NSaved= 3 IEnMin= 3 EnMin= -1385.44812325785     IErMin= 2 ErrMin= 1.43D-02
 ErrMax= 2.86D-02  0.00D+00 EMaxC= 1.00D-01 BMatC= 2.11D-01 BMatP= 1.17D-01
 IDIUse=2 WtCom= 0.00D+00 WtEn= 1.00D+00
 Coeff-En:   0.000D+00 0.259D+00 0.741D+00
 Coeff:      0.000D+00 0.259D+00 0.741D+00
 Gap=     0.374 Goal=   None    Shift=    0.000
 RMSDP=5.73D-03 MaxDP=3.76D-01 DE=-1.61D-01 OVMax= 7.20D-01

 Cycle   4  Pass 0  IDiag  1:
 RMSU=  4.20D-03    CP:  9.62D-01  1.65D+00  3.21D-02
 E= -1383.98782252402     Delta-E=        1.460300733826 Rises=F Damp=F
 DIIS: error= 5.56D-02 at cycle   4 NSaved=   4.
 NSaved= 4 IEnMin= 3 EnMin= -1385.44812325785     IErMin= 2 ErrMin= 1.43D-02
 ErrMax= 5.56D-02  0.00D+00 EMaxC= 1.00D-01 BMatC= 1.32D+00 BMatP= 1.17D-01
 IDIUse=2 WtCom= 0.00D+00 WtEn= 1.00D+00
 Coeff-En:   0.000D+00 0.000D+00 0.798D+00 0.202D+00
 Coeff:      0.000D+00 0.000D+00 0.798D+00 0.202D+00
 Gap=     0.057 Goal=   None    Shift=    0.000
 RMSDP=4.25D-03 MaxDP=1.97D-01 DE= 1.46D+00 OVMax= 8.38D-01

 Cycle   5  Pass 0  IDiag  1:
 RMSU=  1.81D-03    CP:  9.69D-01  6.76D-01  4.22D-01  2.94D-01
 E= -1385.60302412969     Delta-E=       -1.615201605667 Rises=F Damp=F
 DIIS: error= 1.77D-02 at cycle   5 NSaved=   5.
 NSaved= 5 IEnMin= 5 EnMin= -1385.60302412969     IErMin= 2 ErrMin= 1.43D-02
 ErrMax= 1.77D-02  0.00D+00 EMaxC= 1.00D-01 BMatC= 1.08D-01 BMatP= 1.17D-01
 IDIUse=3 WtCom= 8.23D-01 WtEn= 1.77D-01
 Coeff-Com: -0.158D+00 0.413D+00 0.390D+00 0.270D-01 0.328D+00
 Coeff-En:   0.000D+00 0.000D+00 0.336D+00 0.000D+00 0.664D+00
 Coeff:     -0.130D+00 0.340D+00 0.381D+00 0.223D-01 0.387D+00
 Gap=     0.075 Goal=   None    Shift=    0.000
 RMSDP=1.48D-03 MaxDP=1.20D-01 DE=-1.62D+00 OVMax= 1.81D-01

 Cycle   6  Pass 0  IDiag  1:
 RMSU=  7.71D-04    CP:  9.68D-01  5.16D-01  6.39D-01  1.46D-01  5.32D-01
 E= -1385.70815300643     Delta-E=       -0.105128876741 Rises=F Damp=F
 DIIS: error= 7.06D-03 at cycle   6 NSaved=   6.
 NSaved= 6 IEnMin= 6 EnMin= -1385.70815300643     IErMin= 6 ErrMin= 7.06D-03
 ErrMax= 7.06D-03  0.00D+00 EMaxC= 1.00D-01 BMatC= 1.54D-02 BMatP= 1.08D-01
 IDIUse=3 WtCom= 9.29D-01 WtEn= 7.06D-02
 Coeff-Com: -0.886D-01 0.149D+00 0.118D+00-0.124D-01 0.285D+00 0.549D+00
 Coeff-En:   0.000D+00 0.000D+00 0.000D+00 0.000D+00 0.151D+00 0.849D+00
 Coeff:     -0.823D-01 0.139D+00 0.109D+00-0.115D-01 0.276D+00 0.570D+00
 Gap=     0.084 Goal=   None    Shift=    0.000
 RMSDP=4.82D-04 MaxDP=3.33D-02 DE=-1.05D-01 OVMax= 5.58D-02

 Cycle   7  Pass 0  IDiag  1:
 RMSU=  2.21D-04    CP:  9.67D-01  5.60D-01  6.05D-01  1.66D-01  6.80D-01
                    CP:  6.19D-01
 E= -1385.72496172025     Delta-E=       -0.016808713817 Rises=F Damp=F
 DIIS: error= 1.08D-03 at cycle   7 NSaved=   7.
 NSaved= 7 IEnMin= 7 EnMin= -1385.72496172025     IErMin= 7 ErrMin= 1.08D-03
 ErrMax= 1.08D-03  0.00D+00 EMaxC= 1.00D-01 BMatC= 1.06D-03 BMatP= 1.54D-02
 IDIUse=3 WtCom= 9.89D-01 WtEn= 1.08D-02
 Coeff-Com: -0.317D-01 0.458D-01 0.823D-02-0.427D-02 0.956D-01 0.302D+00
 Coeff-Com:  0.584D+00
 Coeff-En:   0.000D+00 0.000D+00 0.000D+00 0.000D+00 0.000D+00 0.000D+00
 Coeff-En:   0.100D+01
 Coeff:     -0.314D-01 0.453D-01 0.814D-02-0.422D-02 0.945D-01 0.299D+00
 Coeff:      0.588D+00
 Gap=     0.085 Goal=   None    Shift=    0.000
 RMSDP=1.27D-04 MaxDP=4.97D-03 DE=-1.68D-02 OVMax= 1.27D-02

 Cycle   8  Pass 0  IDiag  1:
 RMSU=  9.48D-05    CP:  9.67D-01  5.62D-01  6.02D-01  1.67D-01  6.79D-01
                    CP:  6.88D-01  7.08D-01
 E= -1385.72569553283     Delta-E=       -0.000733812577 Rises=F Damp=F
 DIIS: error= 7.85D-04 at cycle   8 NSaved=   8.
 NSaved= 8 IEnMin= 8 EnMin= -1385.72569553283     IErMin= 8 ErrMin= 7.85D-04
 ErrMax= 7.85D-04  0.00D+00 EMaxC= 1.00D-01 BMatC= 3.45D-04 BMatP= 1.06D-03
 IDIUse=3 WtCom= 9.92D-01 WtEn= 7.85D-03
 Coeff-Com: -0.101D-01 0.114D-01-0.117D-01-0.342D-03 0.307D-01 0.139D+00
 Coeff-Com:  0.422D+00 0.419D+00
 Coeff-En:   0.000D+00 0.000D+00 0.000D+00 0.000D+00 0.000D+00 0.000D+00
 Coeff-En:   0.233D+00 0.767D+00
 Coeff:     -0.998D-02 0.113D-01-0.116D-01-0.340D-03 0.305D-01 0.137D+00
 Coeff:      0.421D+00 0.422D+00
 Gap=     0.085 Goal=   None    Shift=    0.000
 RMSDP=6.54D-05 MaxDP=3.23D-03 DE=-7.34D-04 OVMax= 7.94D-03

 Cycle   9  Pass 0  IDiag  1:
 RMSU=  3.39D-05    CP:  9.67D-01  5.62D-01  6.00D-01  1.69D-01  6.83D-01
                    CP:  6.96D-01  7.86D-01  4.60D-01
 E= -1385.72601036830     Delta-E=       -0.000314835474 Rises=F Damp=F
 DIIS: error= 3.47D-04 at cycle   9 NSaved=   9.
 NSaved= 9 IEnMin= 9 EnMin= -1385.72601036830     IErMin= 9 ErrMin= 3.47D-04
 ErrMax= 3.47D-04  0.00D+00 EMaxC= 1.00D-01 BMatC= 4.65D-05 BMatP= 3.45D-04
 IDIUse=3 WtCom= 9.97D-01 WtEn= 3.47D-03
 Coeff-Com: -0.437D-02 0.434D-02-0.103D-01 0.227D-03 0.106D-01 0.641D-01
 Coeff-Com:  0.239D+00 0.307D+00 0.389D+00
 Coeff-En:   0.000D+00 0.000D+00 0.000D+00 0.000D+00 0.000D+00 0.000D+00
 Coeff-En:   0.000D+00 0.854D-01 0.915D+00
 Coeff:     -0.435D-02 0.433D-02-0.102D-01 0.226D-03 0.106D-01 0.639D-01
 Coeff:      0.238D+00 0.306D+00 0.391D+00
 Gap=     0.085 Goal=   None    Shift=    0.000
 RMSDP=2.16D-05 MaxDP=1.30D-03 DE=-3.15D-04 OVMax= 2.07D-03

 Cycle  10  Pass 0  IDiag  1:
 RMSU=  1.24D-05    CP:  9.67D-01  5.63D-01  6.00D-01  1.69D-01  6.84D-01
                    CP:  6.95D-01  7.85D-01  5.49D-01  5.45D-01
 E= -1385.72605277585     Delta-E=       -0.000042407550 Rises=F Damp=F
 DIIS: error= 9.44D-05 at cycle  10 NSaved=  10.
 NSaved=10 IEnMin=10 EnMin= -1385.72605277585     IErMin=10 ErrMin= 9.44D-05
 ErrMax= 9.44D-05  0.00D+00 EMaxC= 1.00D-01 BMatC= 3.22D-06 BMatP= 4.65D-05
 IDIUse=1 WtCom= 1.00D+00 WtEn= 0.00D+00
 Coeff-Com: -0.189D-02 0.243D-02-0.315D-02 0.110D-03 0.180D-02 0.112D-01
 Coeff-Com:  0.490D-01 0.832D-01 0.207D+00 0.650D+00
 Coeff:     -0.189D-02 0.243D-02-0.315D-02 0.110D-03 0.180D-02 0.112D-01
 Coeff:      0.490D-01 0.832D-01 0.207D+00 0.650D+00
 Gap=     0.084 Goal=   None    Shift=    0.000
 RMSDP=7.46D-06 MaxDP=4.19D-04 DE=-4.24D-05 OVMax= 9.95D-04

 Initial convergence to 1.0D-05 achieved.  Increase integral accuracy.
 Cycle  11  Pass 1  IDiag  1:
 E= -1385.72601011245     Delta-E=        0.000042663398 Rises=F Damp=F
 DIIS: error= 1.24D-04 at cycle   1 NSaved=   1.
 NSaved= 1 IEnMin= 1 EnMin= -1385.72601011245     IErMin= 1 ErrMin= 1.24D-04
 ErrMax= 1.24D-04  0.00D+00 EMaxC= 1.00D-01 BMatC= 1.87D-06 BMatP= 1.87D-06
 IDIUse=3 WtCom= 9.99D-01 WtEn= 1.24D-03
 Coeff-Com:  0.100D+01
 Coeff-En:   0.100D+01
 Coeff:      0.100D+01
 Gap=     0.084 Goal=   None    Shift=    0.000
 RMSDP=7.46D-06 MaxDP=4.19D-04 DE= 4.27D-05 OVMax= 1.04D-03

 Cycle  12  Pass 1  IDiag  1:
 RMSU=  5.75D-05    CP:  1.00D+00
 E= -1385.72600751426     Delta-E=        0.000002598196 Rises=F Damp=F
 DIIS: error= 7.38D-05 at cycle   2 NSaved=   2.
 NSaved= 2 IEnMin= 1 EnMin= -1385.72601011245     IErMin= 2 ErrMin= 7.38D-05
 ErrMax= 7.38D-05  0.00D+00 EMaxC= 1.00D-01 BMatC= 4.07D-06 BMatP= 1.87D-06
 IDIUse=1 WtCom= 1.00D+00 WtEn= 0.00D+00
 Coeff-Com:  0.614D+00 0.386D+00
 Coeff:      0.614D+00 0.386D+00
 Gap=     0.084 Goal=   None    Shift=    0.000
 RMSDP=7.74D-06 MaxDP=2.85D-04 DE= 2.60D-06 OVMax= 9.44D-04

 Cycle  13  Pass 1  IDiag  1:
 RMSU=  7.65D-06    CP:  1.00D+00  9.80D-01
 E= -1385.72601159025     Delta-E=       -0.000004075995 Rises=F Damp=F
 DIIS: error= 2.63D-05 at cycle   3 NSaved=   3.
 NSaved= 3 IEnMin= 3 EnMin= -1385.72601159025     IErMin= 3 ErrMin= 2.63D-05
 ErrMax= 2.63D-05  0.00D+00 EMaxC= 1.00D-01 BMatC= 3.48D-07 BMatP= 1.87D-06
 IDIUse=1 WtCom= 1.00D+00 WtEn= 0.00D+00
 Coeff-Com:  0.948D-01 0.226D+00 0.680D+00
 Coeff:      0.948D-01 0.226D+00 0.680D+00
 Gap=     0.085 Goal=   None    Shift=    0.000
 RMSDP=2.38D-06 MaxDP=1.16D-04 DE=-4.08D-06 OVMax= 3.45D-04

 Cycle  14  Pass 1  IDiag  1:
 RMSU=  1.86D-06    CP:  1.00D+00  9.89D-01  8.19D-01
 E= -1385.72601180730     Delta-E=       -0.000000217045 Rises=F Damp=F
 DIIS: error= 1.51D-05 at cycle   4 NSaved=   4.
 NSaved= 4 IEnMin= 4 EnMin= -1385.72601180730     IErMin= 4 ErrMin= 1.51D-05
 ErrMax= 1.51D-05  0.00D+00 EMaxC= 1.00D-01 BMatC= 1.36D-07 BMatP= 3.48D-07
 IDIUse=1 WtCom= 1.00D+00 WtEn= 0.00D+00
 Coeff-Com:  0.447D-02 0.122D+00 0.486D+00 0.387D+00
 Coeff:      0.447D-02 0.122D+00 0.486D+00 0.387D+00
 Gap=     0.085 Goal=   None    Shift=    0.000
 RMSDP=1.28D-06 MaxDP=5.42D-05 DE=-2.17D-07 OVMax= 2.04D-04

 Cycle  15  Pass 1  IDiag  1:
 RMSU=  4.58D-07    CP:  1.00D+00  9.92D-01  8.15D-01  3.60D-01
 E= -1385.72601193324     Delta-E=       -0.000000125940 Rises=F Damp=F
 DIIS: error= 5.01D-06 at cycle   5 NSaved=   5.
 NSaved= 5 IEnMin= 5 EnMin= -1385.72601193324     IErMin= 5 ErrMin= 5.01D-06
 ErrMax= 5.01D-06  0.00D+00 EMaxC= 1.00D-01 BMatC= 1.10D-08 BMatP= 1.36D-07
 IDIUse=1 WtCom= 1.00D+00 WtEn= 0.00D+00
 Coeff-Com: -0.206D-02 0.774D-01 0.319D+00 0.283D+00 0.324D+00
 Coeff:     -0.206D-02 0.774D-01 0.319D+00 0.283D+00 0.324D+00
 Gap=     0.085 Goal=   None    Shift=    0.000
 RMSDP=3.26D-07 MaxDP=1.49D-05 DE=-1.26D-07 OVMax= 4.14D-05

 Cycle  16  Pass 1  IDiag  1:
 RMSU=  1.39D-07    CP:  1.00D+00  9.91D-01  8.19D-01  4.09D-01  3.89D-01
 E= -1385.72601194428     Delta-E=       -0.000000011046 Rises=F Damp=F
 DIIS: error= 5.12D-07 at cycle   6 NSaved=   6.
 NSaved= 6 IEnMin= 6 EnMin= -1385.72601194428     IErMin= 6 ErrMin= 5.12D-07
 ErrMax= 5.12D-07  0.00D+00 EMaxC= 1.00D-01 BMatC= 2.35D-10 BMatP= 1.10D-08
 IDIUse=1 WtCom= 1.00D+00 WtEn= 0.00D+00
 Coeff-Com: -0.154D-02 0.376D-01 0.155D+00 0.142D+00 0.186D+00 0.481D+00
 Coeff:     -0.154D-02 0.376D-01 0.155D+00 0.142D+00 0.186D+00 0.481D+00
 Gap=     0.085 Goal=   None    Shift=    0.000
 RMSDP=6.29D-08 MaxDP=2.00D-06 DE=-1.10D-08 OVMax= 8.18D-06

 Cycle  17  Pass 1  IDiag  1:
 RMSU=  5.08D-08    CP:  1.00D+00  9.91D-01  8.17D-01  4.13D-01  4.24D-01
                    CP:  7.76D-01
 E= -1385.72601194451     Delta-E=       -0.000000000229 Rises=F Damp=F
 DIIS: error= 2.45D-07 at cycle   7 NSaved=   7.
 NSaved= 7 IEnMin= 7 EnMin= -1385.72601194451     IErMin= 7 ErrMin= 2.45D-07
 ErrMax= 2.45D-07  0.00D+00 EMaxC= 1.00D-01 BMatC= 3.97D-11 BMatP= 2.35D-10
 IDIUse=1 WtCom= 1.00D+00 WtEn= 0.00D+00
 Coeff-Com: -0.507D-03 0.940D-02 0.384D-01 0.374D-01 0.530D-01 0.300D+00
 Coeff-Com:  0.562D+00
 Coeff:     -0.507D-03 0.940D-02 0.384D-01 0.374D-01 0.530D-01 0.300D+00
 Coeff:      0.562D+00
 Gap=     0.085 Goal=   None    Shift=    0.000
 RMSDP=2.78D-08 MaxDP=1.47D-06 DE=-2.29D-10 OVMax= 5.44D-06

 Cycle  18  Pass 1  IDiag  1:
 RMSU=  2.04D-08    CP:  1.00D+00  9.91D-01  8.18D-01  4.11D-01  4.28D-01
                    CP:  8.45D-01  7.01D-01
 E= -1385.72601194446     Delta-E=        0.000000000048 Rises=F Damp=F
 DIIS: error= 1.08D-07 at cycle   8 NSaved=   8.
 NSaved= 8 IEnMin= 7 EnMin= -1385.72601194451     IErMin= 8 ErrMin= 1.08D-07
 ErrMax= 1.08D-07  0.00D+00 EMaxC= 1.00D-01 BMatC= 9.09D-12 BMatP= 3.97D-11
 IDIUse=1 WtCom= 1.00D+00 WtEn= 0.00D+00
 Coeff-Com: -0.301D-04-0.168D-02-0.729D-02-0.393D-02-0.606D-02 0.991D-01
 Coeff-Com:  0.375D+00 0.545D+00
 Coeff:     -0.301D-04-0.168D-02-0.729D-02-0.393D-02-0.606D-02 0.991D-01
 Coeff:      0.375D+00 0.545D+00
 Gap=     0.085 Goal=   None    Shift=    0.000
 RMSDP=1.14D-08 MaxDP=5.86D-07 DE= 4.77D-11 OVMax= 1.51D-06

 Cycle  19  Pass 1  IDiag  1:
 RMSU=  7.63D-09    CP:  1.00D+00  9.91D-01  8.18D-01  4.11D-01  4.27D-01
                    CP:  8.64D-01  8.07D-01  7.21D-01
 E= -1385.72601194451     Delta-E=       -0.000000000045 Rises=F Damp=F
 DIIS: error= 4.47D-08 at cycle   9 NSaved=   9.
 NSaved= 9 IEnMin= 7 EnMin= -1385.72601194451     IErMin= 9 ErrMin= 4.47D-08
 ErrMax= 4.47D-08  0.00D+00 EMaxC= 1.00D-01 BMatC= 1.32D-12 BMatP= 9.09D-12
 IDIUse=1 WtCom= 1.00D+00 WtEn= 0.00D+00
 Coeff-Com:  0.655D-04-0.264D-02-0.111D-01-0.830D-02-0.139D-01 0.104D-01
 Coeff-Com:  0.150D+00 0.336D+00 0.540D+00
 Coeff:      0.655D-04-0.264D-02-0.111D-01-0.830D-02-0.139D-01 0.104D-01
 Coeff:      0.150D+00 0.336D+00 0.540D+00
 Gap=     0.085 Goal=   None    Shift=    0.000
 RMSDP=4.54D-09 MaxDP=1.29D-07 DE=-4.46D-11 OVMax= 4.72D-07

 SCF Done:  E(RB3LYP) =  -1385.72601194     A.U. after   19 cycles
            NFock= 19  Conv=0.45D-08     -V/T= 2.0075
 KE= 1.375362741469D+03 PE=-7.127976524342D+03 EE= 2.424307403263D+03
 Leave Link  502 at Mon Jun  3 12:28:13 2024, MaxMem=   104857600 cpu:             502.9 elap:             298.5
 (Enter /software/spackages_v0_21_prod/apps/linux-ubuntu22.04-zen2/gcc-13.2.0/gaussian_sse4-16-C-g6jkfwqig4o4stofyyxv7ma3rrfxhpfk/g16/l601.exe)
 Copying SCF densities to generalized density rwf, IOpCl= 0 IROHF=0.

 **********************************************************************

            Population analysis using the SCF Density.

 **********************************************************************

 Alpha  occ. eigenvalues --  -88.96917 -19.18264 -19.17338 -14.37713 -14.37154
 Alpha  occ. eigenvalues --  -14.36463 -14.32660 -10.25255 -10.24839 -10.24801
 Alpha  occ. eigenvalues --  -10.24329 -10.24204 -10.24143 -10.24031 -10.22468
 Alpha  occ. eigenvalues --  -10.21848 -10.21394 -10.21114 -10.19379 -10.18585
 Alpha  occ. eigenvalues --  -10.18151 -10.17815 -10.16998  -8.02508  -5.99046
 Alpha  occ. eigenvalues --   -5.98463  -5.98242  -1.08292  -1.05868  -1.01917
 Alpha  occ. eigenvalues --   -0.97885  -0.93719  -0.89001  -0.83465  -0.79842
 Alpha  occ. eigenvalues --   -0.79438  -0.77223  -0.75058  -0.74097  -0.71353
 Alpha  occ. eigenvalues --   -0.69303  -0.67870  -0.65531  -0.62442  -0.61382
 Alpha  occ. eigenvalues --   -0.59000  -0.57787  -0.56171  -0.52790  -0.52403
 Alpha  occ. eigenvalues --   -0.51981  -0.50092  -0.49350  -0.47932  -0.47120
 Alpha  occ. eigenvalues --   -0.46479  -0.46154  -0.45977  -0.45800  -0.45008
 Alpha  occ. eigenvalues --   -0.44767  -0.43466  -0.42383  -0.41275  -0.40134
 Alpha  occ. eigenvalues --   -0.39450  -0.39300  -0.38543  -0.38193  -0.37898
 Alpha  occ. eigenvalues --   -0.36359  -0.35701  -0.33277  -0.33240  -0.33051
 Alpha  occ. eigenvalues --   -0.32644  -0.32087  -0.29738  -0.28678  -0.27816
 Alpha  occ. eigenvalues --   -0.26839  -0.25332  -0.24115  -0.19635  -0.17500
 Alpha virt. eigenvalues --   -0.09050  -0.02167   0.00605   0.01213   0.02769
 Alpha virt. eigenvalues --    0.04253   0.07466   0.08905   0.09060   0.09647
 Alpha virt. eigenvalues --    0.10479   0.11609   0.12464   0.13892   0.14389
 Alpha virt. eigenvalues --    0.15058   0.15346   0.15726   0.16454   0.16737
 Alpha virt. eigenvalues --    0.16867   0.17299   0.17383   0.17636   0.17993
 Alpha virt. eigenvalues --    0.19254   0.20378   0.23066   0.23509   0.24270
 Alpha virt. eigenvalues --    0.24716   0.26102   0.27425   0.28130   0.29097
 Alpha virt. eigenvalues --    0.30923   0.31536   0.33043   0.33959   0.35469
 Alpha virt. eigenvalues --    0.36133   0.38031   0.38489   0.40001   0.41678
 Alpha virt. eigenvalues --    0.42854   0.44354   0.44738   0.45690   0.48051
 Alpha virt. eigenvalues --    0.48353   0.49891   0.51320   0.51448   0.51708
 Alpha virt. eigenvalues --    0.52602   0.53060   0.54215   0.54374   0.54832
 Alpha virt. eigenvalues --    0.55167   0.55551   0.55866   0.56533   0.56780
 Alpha virt. eigenvalues --    0.57033   0.58993   0.59185   0.59934   0.60258
 Alpha virt. eigenvalues --    0.61723   0.62348   0.62419   0.63080   0.63971
 Alpha virt. eigenvalues --    0.64862   0.64976   0.65554   0.65976   0.66212
 Alpha virt. eigenvalues --    0.68395   0.68703   0.71358   0.72833   0.72934
 Alpha virt. eigenvalues --    0.73242   0.75046   0.76699   0.77339   0.78770
 Alpha virt. eigenvalues --    0.79599   0.80324   0.80984   0.81448   0.83424
 Alpha virt. eigenvalues --    0.84136   0.84306   0.84412   0.85571   0.85578
 Alpha virt. eigenvalues --    0.85934   0.86380   0.86834   0.87873   0.88848
 Alpha virt. eigenvalues --    0.88913   0.89112   0.90881   0.91545   0.92136
 Alpha virt. eigenvalues --    0.93343   0.93485   0.94021   0.95341   0.95646
 Alpha virt. eigenvalues --    0.96574   0.98123   0.99665   1.00485   1.00840
 Alpha virt. eigenvalues --    1.01517   1.02383   1.03875   1.04199   1.06013
 Alpha virt. eigenvalues --    1.06934   1.08310   1.10669   1.10703   1.11818
 Alpha virt. eigenvalues --    1.12278   1.15205   1.15457   1.17335   1.18756
 Alpha virt. eigenvalues --    1.20678   1.22041   1.22061   1.23765   1.23772
 Alpha virt. eigenvalues --    1.26008   1.28402   1.29072   1.33646   1.33983
 Alpha virt. eigenvalues --    1.34253   1.35135   1.36917   1.37687   1.38694
 Alpha virt. eigenvalues --    1.39341   1.39488   1.39835   1.41316   1.42674
 Alpha virt. eigenvalues --    1.44137   1.46131   1.47431   1.47911   1.48687
 Alpha virt. eigenvalues --    1.49797   1.52309   1.52371   1.52495   1.58277
 Alpha virt. eigenvalues --    1.59771   1.61899   1.65447   1.66970   1.68316
 Alpha virt. eigenvalues --    1.70597   1.71994   1.72981   1.73014   1.76329
 Alpha virt. eigenvalues --    1.77507   1.77597   1.78946   1.80248   1.82235
 Alpha virt. eigenvalues --    1.82859   1.85551   1.87008   1.87168   1.88024
 Alpha virt. eigenvalues --    1.88065   1.90412   1.90910   1.91301   1.91905
 Alpha virt. eigenvalues --    1.93814   1.94319   1.96045   1.96559   1.97209
 Alpha virt. eigenvalues --    1.97888   1.99108   2.01083   2.01992   2.03266
 Alpha virt. eigenvalues --    2.04052   2.04712   2.08474   2.08783   2.10032
 Alpha virt. eigenvalues --    2.10151   2.14802   2.16967   2.17367   2.19819
 Alpha virt. eigenvalues --    2.21644   2.22010   2.22960   2.23367   2.23601
 Alpha virt. eigenvalues --    2.25149   2.25535   2.26077   2.26649   2.28240
 Alpha virt. eigenvalues --    2.28287   2.31021   2.31058   2.31644   2.33382
 Alpha virt. eigenvalues --    2.35961   2.37196   2.38100   2.39918   2.41251
 Alpha virt. eigenvalues --    2.41262   2.44721   2.46518   2.50063   2.50357
 Alpha virt. eigenvalues --    2.51359   2.53420   2.54494   2.55850   2.60122
 Alpha virt. eigenvalues --    2.61154   2.61418   2.62799   2.64975   2.65570
 Alpha virt. eigenvalues --    2.67462   2.68176   2.69363   2.69733   2.72560
 Alpha virt. eigenvalues --    2.75159   2.80170   2.81433   2.84037   2.86212
 Alpha virt. eigenvalues --    2.87408   2.90462   2.94641   2.96132   2.97834
 Alpha virt. eigenvalues --    3.01291   3.02178   3.07879   3.17003   3.19739
 Alpha virt. eigenvalues --    3.30540   3.34037   3.44499   3.47726   3.86035
 Alpha virt. eigenvalues --    3.96591   3.98640   4.02137   4.06989   4.09758
 Alpha virt. eigenvalues --    4.11045   4.11901   4.12738   4.17778   4.22015
 Alpha virt. eigenvalues --    4.24890   4.27400   4.30611   4.35805   4.38748
 Alpha virt. eigenvalues --    4.41947   4.43584   4.53967   4.61520   4.71426
 Alpha virt. eigenvalues --    4.76526   5.02399
          Condensed to atoms (all electrons):
               1          2          3          4          5          6
     1  C    4.894128   0.248917  -0.044946  -0.008558   0.000522  -0.000010
     2  O    0.248917   8.189877   0.290054  -0.064699   0.002438  -0.000048
     3  C   -0.044946   0.290054   4.690587   0.465700   0.018737   0.006048
     4  C   -0.008558  -0.064699   0.465700   5.353192   0.412106  -0.096057
     5  C    0.000522   0.002438   0.018737   0.412106   4.746918   0.399425
     6  C   -0.000010  -0.000048   0.006048  -0.096057   0.399425   5.358277
     7  C    0.000000   0.000001  -0.000062   0.007333  -0.006439   0.488422
     8  C    0.000000  -0.000000   0.000003  -0.000206   0.005692  -0.049064
     9  N    0.000000   0.000000  -0.000000   0.000001  -0.000150   0.005025
    10  C    0.000000  -0.000000  -0.000000  -0.000000   0.000004  -0.000159
    11  C   -0.000000  -0.000000   0.000000   0.000000  -0.000000  -0.000011
    12  C   -0.000000  -0.000000   0.000000  -0.000000  -0.000005   0.000191
    13  N   -0.000000   0.000000  -0.000000  -0.000000  -0.000000   0.000005
    14  S   -0.000000   0.000000   0.000000  -0.000000  -0.000004   0.000493
    15  N   -0.000000   0.000000  -0.000000  -0.000013   0.000366  -0.017424
    16  C   -0.000000  -0.000000  -0.000000   0.000000   0.000562  -0.023038
    17  N   -0.000000  -0.000000  -0.000419   0.013204  -0.013793  -0.126550
    18  C    0.000000   0.000000   0.000014  -0.000142   0.005133   0.006765
    19  C    0.000010   0.000140  -0.032282  -0.040712   0.470036  -0.039929
    20  C   -0.000104   0.003319  -0.061039  -0.058244  -0.069694   0.022232
    21  C    0.005625  -0.057204   0.439391  -0.061946  -0.025157  -0.000277
    22  O   -0.000002  -0.001706  -0.057519   0.003471   0.000205  -0.000001
    23  C    0.000007  -0.000023   0.005512  -0.000110   0.000008  -0.000000
    24  H    0.387283  -0.032938   0.002930  -0.000010   0.000003  -0.000000
    25  H    0.362104  -0.035300  -0.004485   0.006875  -0.000142  -0.000007
    26  H    0.362100  -0.035302  -0.004484   0.006880  -0.000142  -0.000007
    27  H    0.005909  -0.007007  -0.049990   0.350847  -0.031818  -0.006449
    28  H    0.000000  -0.000000  -0.000038  -0.005205  -0.035110   0.349736
    29  H    0.000000   0.000000  -0.000000   0.000000   0.000000   0.000002
    30  H   -0.000000  -0.000000  -0.000000  -0.000000   0.000000  -0.000000
    31  H    0.000000   0.000000   0.000000  -0.000011  -0.000115  -0.000041
    32  H    0.000000   0.000000   0.000000  -0.000011  -0.000117  -0.000042
    33  H    0.000000  -0.000000  -0.000000   0.000006   0.000046  -0.000408
    34  H    0.000003  -0.000040   0.003068   0.000112   0.004526  -0.000308
    35  H    0.000000  -0.000006  -0.000430  -0.000010   0.000002   0.000000
    36  H    0.000000  -0.000006  -0.000431  -0.000010   0.000002   0.000000
    37  H   -0.000001   0.000005   0.000112   0.000007  -0.000000  -0.000000
               7          8          9         10         11         12
     1  C    0.000000   0.000000   0.000000   0.000000  -0.000000  -0.000000
     2  O    0.000001  -0.000000   0.000000  -0.000000  -0.000000  -0.000000
     3  C   -0.000062   0.000003  -0.000000  -0.000000   0.000000   0.000000
     4  C    0.007333  -0.000206   0.000001  -0.000000   0.000000  -0.000000
     5  C   -0.006439   0.005692  -0.000150   0.000004  -0.000000  -0.000005
     6  C    0.488422  -0.049064   0.005025  -0.000159  -0.000011   0.000191
     7  C    4.881138   0.304777  -0.084423   0.005782  -0.000602   0.007679
     8  C    0.304777   4.914299   0.427944  -0.042096  -0.036834  -0.023070
     9  N   -0.084423   0.427944   6.973209   0.425970  -0.027438  -0.041453
    10  C    0.005782  -0.042096   0.425970   4.783834   0.492163  -0.000419
    11  C   -0.000602  -0.036834  -0.027438   0.492163   5.133944   0.420881
    12  C    0.007679  -0.023070  -0.041453  -0.000419   0.420881   4.778365
    13  N   -0.000129   0.010744   0.000286   0.004362  -0.074671   0.436073
    14  S   -0.000430   0.008829  -0.000338  -0.000285   0.010276  -0.096402
    15  N   -0.007392  -0.063759   0.005295  -0.000375   0.010962  -0.102831
    16  C   -0.068564   0.263094  -0.069795  -0.039928  -0.038024   0.377194
    17  N    0.319331  -0.032284  -0.007188   0.000055   0.000013  -0.000089
    18  C   -0.020587  -0.011960  -0.033196   0.000208  -0.000072   0.000013
    19  C   -0.079044   0.005564   0.000029   0.000003   0.000000   0.000002
    20  C    0.000936  -0.000401  -0.000004  -0.000000  -0.000000   0.000000
    21  C    0.000103   0.000000  -0.000000   0.000000  -0.000000   0.000000
    22  O    0.000000  -0.000000   0.000000  -0.000000  -0.000000  -0.000000
    23  C    0.000000   0.000000  -0.000000  -0.000000  -0.000000   0.000000
    24  H    0.000000   0.000000  -0.000000  -0.000000   0.000000  -0.000000
    25  H   -0.000000   0.000000  -0.000000   0.000000   0.000000  -0.000000
    26  H   -0.000000   0.000000  -0.000000   0.000000   0.000000  -0.000000
    27  H   -0.000065   0.000002   0.000000  -0.000000   0.000000   0.000000
    28  H   -0.030333  -0.009563  -0.000073   0.000004  -0.000011   0.000568
    29  H   -0.000196   0.004426  -0.055402   0.377072  -0.061310   0.002928
    30  H    0.000020   0.000255   0.003970  -0.036146   0.344563  -0.029703
    31  H    0.000513   0.000487   0.000755  -0.000008   0.000001  -0.000000
    32  H    0.000514   0.000492   0.000747  -0.000008   0.000001  -0.000000
    33  H   -0.007802   0.001521   0.040908   0.000064   0.000248   0.000001
    34  H   -0.000014   0.000013   0.000001  -0.000000   0.000000  -0.000000
    35  H    0.000000   0.000000  -0.000000  -0.000000   0.000000   0.000000
    36  H    0.000000   0.000000  -0.000000  -0.000000   0.000000   0.000000
    37  H    0.000000   0.000000  -0.000000  -0.000000  -0.000000  -0.000000
              13         14         15         16         17         18
     1  C   -0.000000  -0.000000  -0.000000  -0.000000  -0.000000   0.000000
     2  O    0.000000   0.000000   0.000000  -0.000000  -0.000000   0.000000
     3  C   -0.000000   0.000000  -0.000000  -0.000000  -0.000419   0.000014
     4  C   -0.000000  -0.000000  -0.000013   0.000000   0.013204  -0.000142
     5  C   -0.000000  -0.000004   0.000366   0.000562  -0.013793   0.005133
     6  C    0.000005   0.000493  -0.017424  -0.023038  -0.126550   0.006765
     7  C   -0.000129  -0.000430  -0.007392  -0.068564   0.319331  -0.020587
     8  C    0.010744   0.008829  -0.063759   0.263094  -0.032284  -0.011960
     9  N    0.000286  -0.000338   0.005295  -0.069795  -0.007188  -0.033196
    10  C    0.004362  -0.000285  -0.000375  -0.039928   0.000055   0.000208
    11  C   -0.074671   0.010276   0.010962  -0.038024   0.000013  -0.000072
    12  C    0.436073  -0.096402  -0.102831   0.377194  -0.000089   0.000013
    13  N    7.083665   0.255398  -0.076066  -0.082863  -0.000000   0.000000
    14  S    0.255398  15.089273   0.248785  -0.086614   0.000010  -0.000000
    15  N   -0.076066   0.248785   7.161768   0.401968   0.000030   0.000001
    16  C   -0.082863  -0.086614   0.401968   5.141991   0.006158  -0.000591
    17  N   -0.000000   0.000010   0.000030   0.006158   7.052928   0.292113
    18  C    0.000000  -0.000000   0.000001  -0.000591   0.292113   5.064487
    19  C    0.000000  -0.000000   0.000003  -0.000042   0.295903  -0.050041
    20  C    0.000000   0.000000   0.000000   0.000001  -0.092793  -0.004885
    21  C   -0.000000   0.000000  -0.000000  -0.000000   0.003505  -0.000067
    22  O    0.000000   0.000000  -0.000000   0.000000  -0.000026   0.000001
    23  C    0.000000  -0.000000   0.000000  -0.000000  -0.000005  -0.000009
    24  H   -0.000000   0.000000  -0.000000  -0.000000  -0.000000   0.000000
    25  H   -0.000000   0.000000  -0.000000  -0.000000   0.000000   0.000000
    26  H   -0.000000   0.000000  -0.000000  -0.000000   0.000000   0.000000
    27  H   -0.000000   0.000000  -0.000004  -0.000000  -0.000088   0.000002
    28  H    0.000035   0.000133   0.019755   0.001949   0.003462  -0.000070
    29  H   -0.000110   0.000010   0.000009   0.000813  -0.000008   0.000289
    30  H   -0.003216  -0.000368  -0.000059   0.005477  -0.000000   0.000001
    31  H   -0.000000   0.000000  -0.000000   0.000014  -0.042616   0.367772
    32  H   -0.000000   0.000000  -0.000000   0.000014  -0.042605   0.367934
    33  H   -0.000000   0.000001  -0.000005   0.000569  -0.024212   0.352765
    34  H   -0.000000   0.000000  -0.000000   0.000000  -0.008715   0.006169
    35  H   -0.000000   0.000000  -0.000000  -0.000000  -0.000001  -0.000003
    36  H   -0.000000   0.000000  -0.000000  -0.000000  -0.000001  -0.000003
    37  H    0.000000   0.000000  -0.000000  -0.000000  -0.000000   0.000000
              19         20         21         22         23         24
     1  C    0.000010  -0.000104   0.005625  -0.000002   0.000007   0.387283
     2  O    0.000140   0.003319  -0.057204  -0.001706  -0.000023  -0.032938
     3  C   -0.032282  -0.061039   0.439391  -0.057519   0.005512   0.002930
     4  C   -0.040712  -0.058244  -0.061946   0.003471  -0.000110  -0.000010
     5  C    0.470036  -0.069694  -0.025157   0.000205   0.000008   0.000003
     6  C   -0.039929   0.022232  -0.000277  -0.000001  -0.000000  -0.000000
     7  C   -0.079044   0.000936   0.000103   0.000000   0.000000   0.000000
     8  C    0.005564  -0.000401   0.000000  -0.000000   0.000000   0.000000
     9  N    0.000029  -0.000004  -0.000000   0.000000  -0.000000  -0.000000
    10  C    0.000003  -0.000000   0.000000  -0.000000  -0.000000  -0.000000
    11  C    0.000000  -0.000000  -0.000000  -0.000000  -0.000000   0.000000
    12  C    0.000002   0.000000   0.000000  -0.000000   0.000000  -0.000000
    13  N    0.000000   0.000000  -0.000000   0.000000   0.000000  -0.000000
    14  S   -0.000000   0.000000   0.000000   0.000000  -0.000000   0.000000
    15  N    0.000003   0.000000  -0.000000  -0.000000   0.000000  -0.000000
    16  C   -0.000042   0.000001  -0.000000   0.000000  -0.000000  -0.000000
    17  N    0.295903  -0.092793   0.003505  -0.000026  -0.000005  -0.000000
    18  C   -0.050041  -0.004885  -0.000067   0.000001  -0.000009   0.000000
    19  C    4.718250   0.407014   0.016484   0.002750   0.000573  -0.000000
    20  C    0.407014   5.366957   0.481413  -0.060743  -0.009387   0.000007
    21  C    0.016484   0.481413   4.655373   0.293967  -0.043930   0.000119
    22  O    0.002750  -0.060743   0.293967   8.171517   0.244594   0.000001
    23  C    0.000573  -0.009387  -0.043930   0.244594   4.899623  -0.000001
    24  H   -0.000000   0.000007   0.000119   0.000001  -0.000001   0.532937
    25  H    0.000005  -0.000014  -0.000441  -0.000006   0.000000  -0.031236
    26  H    0.000005  -0.000014  -0.000441  -0.000006   0.000000  -0.031231
    27  H    0.005019   0.000059   0.003553  -0.000047   0.000003  -0.000077
    28  H    0.006168  -0.000122   0.000002  -0.000000   0.000000   0.000000
    29  H   -0.000000  -0.000000   0.000000   0.000000   0.000000   0.000000
    30  H   -0.000000  -0.000000   0.000000  -0.000000   0.000000  -0.000000
    31  H   -0.002800   0.003161   0.000051  -0.000000  -0.000005   0.000000
    32  H   -0.002788   0.003149   0.000051  -0.000000  -0.000005   0.000000
    33  H    0.002161   0.000118   0.000000  -0.000000   0.000000  -0.000000
    34  H   -0.026514   0.340213  -0.043545  -0.007148   0.006271  -0.000000
    35  H   -0.000146   0.006183  -0.003691  -0.034340   0.361622   0.000000
    36  H   -0.000146   0.006180  -0.003693  -0.034338   0.361626   0.000000
    37  H    0.000004   0.000088   0.002591  -0.032406   0.387907   0.000000
              25         26         27         28         29         30
     1  C    0.362104   0.362100   0.005909   0.000000   0.000000  -0.000000
     2  O   -0.035300  -0.035302  -0.007007  -0.000000   0.000000  -0.000000
     3  C   -0.004485  -0.004484  -0.049990  -0.000038  -0.000000  -0.000000
     4  C    0.006875   0.006880   0.350847  -0.005205   0.000000  -0.000000
     5  C   -0.000142  -0.000142  -0.031818  -0.035110   0.000000   0.000000
     6  C   -0.000007  -0.000007  -0.006449   0.349736   0.000002  -0.000000
     7  C   -0.000000  -0.000000  -0.000065  -0.030333  -0.000196   0.000020
     8  C    0.000000   0.000000   0.000002  -0.009563   0.004426   0.000255
     9  N   -0.000000  -0.000000   0.000000  -0.000073  -0.055402   0.003970
    10  C    0.000000   0.000000  -0.000000   0.000004   0.377072  -0.036146
    11  C    0.000000   0.000000   0.000000  -0.000011  -0.061310   0.344563
    12  C   -0.000000  -0.000000   0.000000   0.000568   0.002928  -0.029703
    13  N   -0.000000  -0.000000  -0.000000   0.000035  -0.000110  -0.003216
    14  S    0.000000   0.000000   0.000000   0.000133   0.000010  -0.000368
    15  N   -0.000000  -0.000000  -0.000004   0.019755   0.000009  -0.000059
    16  C   -0.000000  -0.000000  -0.000000   0.001949   0.000813   0.005477
    17  N    0.000000   0.000000  -0.000088   0.003462  -0.000008  -0.000000
    18  C    0.000000   0.000000   0.000002  -0.000070   0.000289   0.000001
    19  C    0.000005   0.000005   0.005019   0.006168  -0.000000  -0.000000
    20  C   -0.000014  -0.000014   0.000059  -0.000122  -0.000000  -0.000000
    21  C   -0.000441  -0.000441   0.003553   0.000002   0.000000   0.000000
    22  O   -0.000006  -0.000006  -0.000047  -0.000000   0.000000  -0.000000
    23  C    0.000000   0.000000   0.000003   0.000000   0.000000   0.000000
    24  H   -0.031236  -0.031231  -0.000077   0.000000   0.000000  -0.000000
    25  H    0.593817  -0.047822   0.001459  -0.000000  -0.000000   0.000000
    26  H   -0.047822   0.593815   0.001459  -0.000000  -0.000000   0.000000
    27  H    0.001459   0.001459   0.591510   0.002391   0.000000  -0.000000
    28  H   -0.000000  -0.000000   0.002391   0.522320   0.000000   0.000000
    29  H   -0.000000  -0.000000   0.000000   0.000000   0.592503  -0.002062
    30  H    0.000000   0.000000  -0.000000   0.000000  -0.002062   0.569206
    31  H   -0.000000   0.000000   0.000000   0.000003  -0.000006  -0.000000
    32  H    0.000000  -0.000000   0.000000   0.000003  -0.000006  -0.000000
    33  H   -0.000000  -0.000000  -0.000000  -0.000009  -0.000588  -0.000004
    34  H   -0.000000  -0.000000   0.000014   0.000003  -0.000000  -0.000000
    35  H   -0.000000   0.000000  -0.000000  -0.000000  -0.000000  -0.000000
    36  H    0.000000  -0.000000  -0.000000  -0.000000  -0.000000  -0.000000
    37  H    0.000000   0.000000  -0.000000   0.000000   0.000000   0.000000
              31         32         33         34         35         36
     1  C    0.000000   0.000000   0.000000   0.000003   0.000000   0.000000
     2  O    0.000000   0.000000  -0.000000  -0.000040  -0.000006  -0.000006
     3  C    0.000000   0.000000  -0.000000   0.003068  -0.000430  -0.000431
     4  C   -0.000011  -0.000011   0.000006   0.000112  -0.000010  -0.000010
     5  C   -0.000115  -0.000117   0.000046   0.004526   0.000002   0.000002
     6  C   -0.000041  -0.000042  -0.000408  -0.000308   0.000000   0.000000
     7  C    0.000513   0.000514  -0.007802  -0.000014   0.000000   0.000000
     8  C    0.000487   0.000492   0.001521   0.000013   0.000000   0.000000
     9  N    0.000755   0.000747   0.040908   0.000001  -0.000000  -0.000000
    10  C   -0.000008  -0.000008   0.000064  -0.000000  -0.000000  -0.000000
    11  C    0.000001   0.000001   0.000248   0.000000   0.000000   0.000000
    12  C   -0.000000  -0.000000   0.000001  -0.000000   0.000000   0.000000
    13  N   -0.000000  -0.000000  -0.000000  -0.000000  -0.000000  -0.000000
    14  S    0.000000   0.000000   0.000001   0.000000   0.000000   0.000000
    15  N   -0.000000  -0.000000  -0.000005  -0.000000  -0.000000  -0.000000
    16  C    0.000014   0.000014   0.000569   0.000000  -0.000000  -0.000000
    17  N   -0.042616  -0.042605  -0.024212  -0.008715  -0.000001  -0.000001
    18  C    0.367772   0.367934   0.352765   0.006169  -0.000003  -0.000003
    19  C   -0.002800  -0.002788   0.002161  -0.026514  -0.000146  -0.000146
    20  C    0.003161   0.003149   0.000118   0.340213   0.006183   0.006180
    21  C    0.000051   0.000051   0.000000  -0.043545  -0.003691  -0.003693
    22  O   -0.000000  -0.000000  -0.000000  -0.007148  -0.034340  -0.034338
    23  C   -0.000005  -0.000005   0.000000   0.006271   0.361622   0.361626
    24  H    0.000000   0.000000  -0.000000  -0.000000   0.000000   0.000000
    25  H   -0.000000   0.000000  -0.000000  -0.000000  -0.000000   0.000000
    26  H    0.000000  -0.000000  -0.000000  -0.000000   0.000000  -0.000000
    27  H    0.000000   0.000000  -0.000000   0.000014  -0.000000  -0.000000
    28  H    0.000003   0.000003  -0.000009   0.000003  -0.000000  -0.000000
    29  H   -0.000006  -0.000006  -0.000588  -0.000000  -0.000000  -0.000000
    30  H   -0.000000  -0.000000  -0.000004  -0.000000  -0.000000  -0.000000
    31  H    0.578537  -0.044394  -0.019871   0.001291  -0.000013   0.000031
    32  H   -0.044394   0.578349  -0.019917   0.001284   0.000031  -0.000013
    33  H   -0.019871  -0.019917   0.450432  -0.000066  -0.000000  -0.000000
    34  H    0.001291   0.001284  -0.000066   0.587700   0.001442   0.001439
    35  H   -0.000013   0.000031  -0.000000   0.001442   0.587558  -0.046130
    36  H    0.000031  -0.000013  -0.000000   0.001439  -0.046130   0.587574
    37  H   -0.000000  -0.000000   0.000000  -0.000081  -0.030755  -0.030762
              37
     1  C   -0.000001
     2  O    0.000005
     3  C    0.000112
     4  C    0.000007
     5  C   -0.000000
     6  C   -0.000000
     7  C    0.000000
     8  C    0.000000
     9  N   -0.000000
    10  C   -0.000000
    11  C   -0.000000
    12  C   -0.000000
    13  N    0.000000
    14  S    0.000000
    15  N   -0.000000
    16  C   -0.000000
    17  N   -0.000000
    18  C    0.000000
    19  C    0.000004
    20  C    0.000088
    21  C    0.002591
    22  O   -0.032406
    23  C    0.387907
    24  H    0.000000
    25  H    0.000000
    26  H    0.000000
    27  H   -0.000000
    28  H    0.000000
    29  H    0.000000
    30  H    0.000000
    31  H   -0.000000
    32  H   -0.000000
    33  H    0.000000
    34  H   -0.000081
    35  H   -0.030755
    36  H   -0.030762
    37  H    0.524947
 Mulliken charges:
               1
     1  C   -0.212988
     2  O   -0.500470
     3  C    0.333969
     4  C   -0.283789
     5  C    0.115956
     6  C   -0.276792
     7  C    0.289531
     8  C    0.321094
     9  N   -0.564679
    10  C    0.029902
    11  C   -0.174079
    12  C    0.270077
    13  N   -0.553511
    14  S    0.571234
    15  N   -0.581012
    16  C    0.209654
    17  N   -0.595322
    18  C   -0.342040
    19  C    0.344324
    20  C   -0.283589
    21  C    0.338163
    22  O   -0.488216
    23  C   -0.214272
    24  H    0.172215
    25  H    0.155193
    26  H    0.155191
    27  H    0.133318
    28  H    0.174003
    29  H    0.141636
    30  H    0.148065
    31  H    0.157263
    32  H    0.157337
    33  H    0.224040
    34  H    0.132882
    35  H    0.158687
    36  H    0.158680
    37  H    0.178344
 Sum of Mulliken charges =  -0.00000
 Mulliken charges with hydrogens summed into heavy atoms:
               1
     1  C    0.269611
     2  O   -0.500470
     3  C    0.333969
     4  C   -0.150470
     5  C    0.115956
     6  C   -0.102788
     7  C    0.289531
     8  C    0.321094
     9  N   -0.564679
    10  C    0.171537
    11  C   -0.026013
    12  C    0.270077
    13  N   -0.553511
    14  S    0.571234
    15  N   -0.581012
    16  C    0.209654
    17  N   -0.595322
    18  C    0.196600
    19  C    0.344324
    20  C   -0.150707
    21  C    0.338163
    22  O   -0.488216
    23  C    0.281440
 Electronic spatial extent (au):  <R**2>=          10771.7137
 Charge=             -0.0000 electrons
 Dipole moment (field-independent basis, Debye):
    X=              2.3684    Y=             -1.6622    Z=             -0.6913  Tot=              2.9749
 Quadrupole moment (field-independent basis, Debye-Ang):
   XX=           -135.3127   YY=           -122.9155   ZZ=           -135.2372
   XY=              4.2265   XZ=              2.8615   YZ=              9.5573
 Traceless Quadrupole moment (field-independent basis, Debye-Ang):
   XX=             -4.1576   YY=              8.2396   ZZ=             -4.0821
   XY=              4.2265   XZ=              2.8615   YZ=              9.5573
 Octapole moment (field-independent basis, Debye-Ang**2):
  XXX=            360.9942  YYY=           -193.4810  ZZZ=           -107.0847  XYY=            149.0365
  XXY=           -100.3161  XXZ=            -51.8216  XZZ=            113.2364  YZZ=            -59.0326
  YYZ=            -33.0078  XYZ=             22.0746
 Hexadecapole moment (field-independent basis, Debye-Ang**3):
 XXXX=         -10793.4881 YYYY=          -2568.7085 ZZZZ=           -787.1474 XXXY=           1454.1638
 XXXZ=            382.9700 YYYX=           1049.2551 YYYZ=           -529.7062 ZZZX=            187.1567
 ZZZY=           -587.2806 XXYY=          -2088.3579 XXZZ=          -1883.2039 YYZZ=           -545.9148
 XXYZ=            -70.4295 YYXZ=             46.5652 ZZXY=            375.9387
 N-N= 1.942580367665D+03 E-N=-7.127976542654D+03  KE= 1.375362741469D+03
 No NMR shielding tensors so no spin-rotation constants.
 Leave Link  601 at Mon Jun  3 12:28:15 2024, MaxMem=   104857600 cpu:               1.6 elap:               1.7
 (Enter /software/spackages_v0_21_prod/apps/linux-ubuntu22.04-zen2/gcc-13.2.0/gaussian_sse4-16-C-g6jkfwqig4o4stofyyxv7ma3rrfxhpfk/g16/l9999.exe)
 Unable to Open any file for archive entry.
 1\1\GINC-ERC-HPC-COMP011\SP\RB3LYP\6-31G(d)\C16H14N4O2S1\K2255489\03-J
 un-2024\0\\#p B3LYP/6-31G* SP, Geom=Checkpoint, nosymm\\b_18_v2 n_c_ge
 o Smile String: COc1cc2cc(-c3nccc4nsnc34)n(C)c2cc1OC\\0,1\C,0,4.623171
 4086,2.0806074264,1.5608676484\O,0,4.3803484945,0.8419876839,0.8828417
 034\C,0,3.1196206191,0.5018258163,0.5999192114\C,0,1.9894253395,1.2283
 082179,0.8946217396\C,0,0.7269382702,0.7076788743,0.515511099\C,0,-0.5
 771988412,1.1669018117,0.6540898302\C,0,-1.4472571576,0.2102084071,0.0
 746299627\C,0,-2.8957313653,0.3119006483,0.0104891454\N,0,-3.586550049
 4,-0.6662764068,-0.5704180197\C,0,-4.937130568,-0.6300126298,-0.662178
 3306\C,0,-5.7276977784,0.3930249109,-0.1791085941\C,0,-5.0558401618,1.
 466667775,0.4515411153\N,0,-5.6235069429,2.556293219,0.9887969022\S,0,
 -4.404821871,3.4684778608,1.5781500414\N,0,-3.1190091643,2.526044312,1
 .1786769092\C,0,-3.6123443795,1.4485846287,0.560612068\N,0,-0.67885064
 15,-0.8460770414,-0.4248123375\C,0,-1.070583265,-2.0815928198,-1.11212
 05767\C,0,0.6416534816,-0.5643283267,-0.1678216021\C,0,1.7665520689,-1
 .316332088,-0.4763788802\C,0,3.0094860177,-0.7908711687,-0.0962841895\
 O,0,4.1718731677,-1.3790173083,-0.3149180993\C,0,4.2340898912,-2.65040
 51184,-0.9862074526\H,0,5.7042853165,2.1389406705,1.6793373383\H,0,4.1
 382104358,2.0839054825,2.5432493362\H,0,4.2662113879,2.9249583041,0.96
 09337398\H,0,2.0494868397,2.1807305834,1.4059574674\H,0,-0.9092456003,
 2.0835020963,1.1146771877\H,0,-5.3877843488,-1.4852135689,-1.157558531
 3\H,0,-6.8077140584,0.3845231176,-0.2725912645\H,0,-0.7331918858,-2.94
 42629396,-0.5285006503\H,0,-0.6076347698,-2.107742759,-2.1039116543\H,
 0,-2.1501195858,-2.1024529079,-1.2095554583\H,0,1.6977664046,-2.267104
 5685,-0.9875106032\H,0,3.8238170947,-2.5669925796,-1.9971685598\H,0,3.
 695574009,-3.4103274115,-0.4118879118\H,0,5.293722188,-2.8960422037,-1
 .0311497297\\Version=ES64L-G16RevC.01\HF=-1385.7260119\RMSD=4.540e-09\
 Dipole=0.9317894,-0.6539582,-0.2719663\Quadrupole=-3.0910506,6.1259649
 ,-3.0349143,3.142277,2.1274528,7.1055919\PG=C01 [X(C16H14N4O2S1)]\\@
 The archive entry for this job was punched.


 O WAD SOME POWER THE GIFTIE GIE US       
 TO SEE OURSELS AS OTHERS SEE US.....     
 IT WOULD FRAE MONIE A BLUNDER FREE US,   
                     AND FOOLISH NOTION...
 WHAT AIRS IN DRESS AND GAIT WAD LEA'E US,
                     AND EV'N DEVOTION....
                                          
              (ROBERT BURNS 'TO A LOUSE') 
 Job cpu time:       0 days  0 hours  8 minutes 50.0 seconds.
 Elapsed time:       0 days  0 hours  5 minutes 13.5 seconds.
 File lengths (MBytes):  RWF=    136 Int=      0 D2E=      0 Chk=    268 Scr=      8
 Normal termination of Gaussian 16 at Mon Jun  3 12:28:15 2024.
