 Entering Gaussian System, Link 0=g16
 Input=b_18_v2_n_a_geo.com
 Output=b_18_v2_n_a_geo.log
 Initial command:
 /software/spackages_v0_21_prod/apps/linux-ubuntu22.04-zen2/gcc-13.2.0/gaussian_sse4-16-C-g6jkfwqig4o4stofyyxv7ma3rrfxhpfk/g16/l1.exe "/scratch/prj/mime/TSJ_funnel_project/paper_fix_dimers/b_18_v2/Gau-1843545.inp" -scrdir="/scratch/prj/mime/TSJ_funnel_project/paper_fix_dimers/b_18_v2/"
 Entering Link 1 = /software/spackages_v0_21_prod/apps/linux-ubuntu22.04-zen2/gcc-13.2.0/gaussian_sse4-16-C-g6jkfwqig4o4stofyyxv7ma3rrfxhpfk/g16/l1.exe PID=   1843547.
  
 Copyright (c) 1988-2019, Gaussian, Inc.  All Rights Reserved.
  
 This is part of the Gaussian(R) 16 program.  It is based on
 the Gaussian(R) 09 system (copyright 2009, Gaussian, Inc.),
 the Gaussian(R) 03 system (copyright 2003, Gaussian, Inc.),
 the Gaussian(R) 98 system (copyright 1998, Gaussian, Inc.),
 the Gaussian(R) 94 system (copyright 1995, Gaussian, Inc.),
 the Gaussian 92(TM) system (copyright 1992, Gaussian, Inc.),
 the Gaussian 90(TM) system (copyright 1990, Gaussian, Inc.),
 the Gaussian 88(TM) system (copyright 1988, Gaussian, Inc.),
 the Gaussian 86(TM) system (copyright 1986, Carnegie Mellon
 University), and the Gaussian 82(TM) system (copyright 1983,
 Carnegie Mellon University). Gaussian is a federally registered
 trademark of Gaussian, Inc.
  
 This software contains proprietary and confidential information,
 including trade secrets, belonging to Gaussian, Inc.
  
 This software is provided under written license and may be
 used, copied, transmitted, or stored only in accord with that
 written license.
  
 The following legend is applicable only to US Government
 contracts under FAR:
  
                    RESTRICTED RIGHTS LEGEND
  
 Use, reproduction and disclosure by the US Government is
 subject to restrictions as set forth in subparagraphs (a)
 and (c) of the Commercial Computer Software - Restricted
 Rights clause in FAR 52.227-19.
  
 Gaussian, Inc.
 340 Quinnipiac St., Bldg. 40, Wallingford CT 06492
  
  
 ---------------------------------------------------------------
 Warning -- This program may not be used in any manner that
 competes with the business of Gaussian, Inc. or will provide
 assistance to any competitor of Gaussian, Inc.  The licensee
 of this program is prohibited from giving any competitor of
 Gaussian, Inc. access to this program.  By using this program,
 the user acknowledges that Gaussian, Inc. is engaged in the
 business of creating and licensing software in the field of
 computational chemistry and represents and warrants to the
 licensee that it is not a competitor of Gaussian, Inc. and that
 it will not use this program in any manner prohibited above.
 ---------------------------------------------------------------
  

 Cite this work as:
 Gaussian 16, Revision C.01,
 M. J. Frisch, G. W. Trucks, H. B. Schlegel, G. E. Scuseria, 
 M. A. Robb, J. R. Cheeseman, G. Scalmani, V. Barone, 
 G. A. Petersson, H. Nakatsuji, X. Li, M. Caricato, A. V. Marenich, 
 J. Bloino, B. G. Janesko, R. Gomperts, B. Mennucci, H. P. Hratchian, 
 J. V. Ortiz, A. F. Izmaylov, J. L. Sonnenberg, D. Williams-Young, 
 F. Ding, F. Lipparini, F. Egidi, J. Goings, B. Peng, A. Petrone, 
 T. Henderson, D. Ranasinghe, V. G. Zakrzewski, J. Gao, N. Rega, 
 G. Zheng, W. Liang, M. Hada, M. Ehara, K. Toyota, R. Fukuda, 
 J. Hasegawa, M. Ishida, T. Nakajima, Y. Honda, O. Kitao, H. Nakai, 
 T. Vreven, K. Throssell, J. A. Montgomery, Jr., J. E. Peralta, 
 F. Ogliaro, M. J. Bearpark, J. J. Heyd, E. N. Brothers, K. N. Kudin, 
 V. N. Staroverov, T. A. Keith, R. Kobayashi, J. Normand, 
 K. Raghavachari, A. P. Rendell, J. C. Burant, S. S. Iyengar, 
 J. Tomasi, M. Cossi, J. M. Millam, M. Klene, C. Adamo, R. Cammi, 
 J. W. Ochterski, R. L. Martin, K. Morokuma, O. Farkas, 
 J. B. Foresman, and D. J. Fox, Gaussian, Inc., Wallingford CT, 2019.
 
 ******************************************
 Gaussian 16:  ES64L-G16RevC.01  3-Jul-2019
                 3-Jun-2024 
 ******************************************
 %OldChk=b_18_v2_opt_a.chk
 %NProc=4
 Will use up to    4 processors via shared memory.
 %Chk=b_18_v2_n_a_geo.chk
 Copying data from "b_18_v2_opt_a.chk" to current chk file "b_18_v2_n_a_geo.chk"
 IOpt=  2 FromEx=T IUOpen= 4 IOptOp= 5 NList=   0 IFRang= 0 IUIn= 4 IUOut= 2.
 -------------------------------------------
 #p B3LYP/6-31G* SP, Geom=Checkpoint, nosymm
 -------------------------------------------
 1/29=2,38=1,172=1/1;
 2/12=2,15=1,40=1/2;
 3/5=1,6=6,7=1,11=2,14=-4,25=1,30=1,74=-5/1,2,3;
 4//1;
 5/5=2,38=5/2;
 6/7=2,8=2,9=2,10=2,28=1/1;
 99/5=1,9=1/99;
 Leave Link    1 at Mon Jun  3 12:24:39 2024, MaxMem=   104857600 cpu:               0.8 elap:               0.4
 (Enter /software/spackages_v0_21_prod/apps/linux-ubuntu22.04-zen2/gcc-13.2.0/gaussian_sse4-16-C-g6jkfwqig4o4stofyyxv7ma3rrfxhpfk/g16/l101.exe)
 ------------------------------------------------------------------
 b_18_v2 n_a_geo Smile String: COc1cc2cc(-c3nccc4nsnc34)n(C)c2cc1OC
 ------------------------------------------------------------------
 Structure from the checkpoint file:  "b_18_v2_n_a_geo.chk"
 Charge =  0 Multiplicity = 1
 Redundant internal coordinates found in file.  (old form).
 C,0,4.602803672,2.0803698131,1.5589912226
 O,0,4.4460557176,0.849691873,0.8929127978
 C,0,3.1563201086,0.462598517,0.5822603054
 C,0,2.0174572957,1.2003190272,0.8817123683
 C,0,0.747238308,0.7066070208,0.5159529799
 C,0,-0.585382833,1.1790366801,0.6588232903
 C,0,-1.4500810158,0.2443339509,0.0916563128
 C,0,-2.9053798221,0.3195009569,0.0133508487
 N,0,-3.5863846871,-0.6970142124,-0.5838767418
 C,0,-4.9215765033,-0.6508026507,-0.6678287371
 C,0,-5.7266863358,0.3733290238,-0.1874294017
 C,0,-5.0834850612,1.4629922511,0.4456621545
 N,0,-5.6837056359,2.5396363809,0.9707747467
 S,0,-4.4320684301,3.5003199888,1.5845462954
 N,0,-3.1146659301,2.5245116288,1.1713985153
 C,0,-3.6253642793,1.4452773654,0.5547574265
 N,0,-0.6581809285,-0.8177151838,-0.4087489808
 C,0,-1.0544625586,-2.0378491866,-1.0887540684
 C,0,0.6674133312,-0.5397700944,-0.1531216295
 C,0,1.8082823489,-1.2937073806,-0.4608993768
 C,0,3.053254665,-0.7876156981,-0.0905393211
 O,0,4.2538755357,-1.4255249,-0.3317952819
 C,0,4.2024427474,-2.6662520736,-0.994059237
 H,0,5.6780755145,2.2080599037,1.7139258287
 H,0,4.0948742506,2.0893826481,2.5351365264
 H,0,4.2222136607,2.9238140245,0.9634407744
 H,0,2.0934517599,2.1530583271,1.3944017805
 H,0,-0.9186382572,2.0952138408,1.1187654728
 H,0,-5.3845489019,-1.50781569,-1.1622743342
 H,0,-6.8075572228,0.3493854339,-0.2880804361
 H,0,-0.7216658042,-2.9172560142,-0.5181683145
 H,0,-0.5944010944,-2.084367342,-2.0866805067
 H,0,-2.1395587868,-2.0363729232,-1.1761702896
 H,0,1.7226031311,-2.2444811701,-0.9731799317
 H,0,3.7589325051,-2.5810510029,-1.9978981976
 H,0,3.6303664038,-3.4151059367,-0.4252147851
 H,0,5.2381531323,-3.0047171964,-1.0889300753
 Recover connectivity data from disk.
 ITRead=  0  0  0  0  0  0  0  0  0  0  0  0  0  0  0  0  0  0  0  0
 ITRead=  0  0  0  0  0  0  0  0  0  0  0  0  0  0  0  0  0
 MicOpt= -1 -1 -1 -1 -1 -1 -1 -1 -1 -1 -1 -1 -1 -1 -1 -1 -1 -1 -1 -1
 MicOpt= -1 -1 -1 -1 -1 -1 -1 -1 -1 -1 -1 -1 -1 -1 -1 -1 -1
                           ----------------------------
                           !    Current Parameters    !
                           ! (Angstroms and Degrees)  !
 --------------------------                            --------------------------
 ! Name  Definition              Value                                          !
 --------------------------------------------------------------------------------
 ! R1    R(1,2)                  1.4081                                         !
 ! R2    R(1,24)                 1.0939                                         !
 ! R3    R(1,25)                 1.1004                                         !
 ! R4    R(1,26)                 1.1004                                         !
 ! R5    R(2,3)                  1.3819                                         !
 ! R6    R(3,4)                  1.3896                                         !
 ! R7    R(3,21)                 1.4235                                         !
 ! R8    R(4,5)                  1.411                                          !
 ! R9    R(4,27)                 1.0846                                         !
 ! R10   R(5,6)                  1.4211                                         !
 ! R11   R(5,19)                 1.4169                                         !
 ! R12   R(6,7)                  1.3939                                         !
 ! R13   R(6,28)                 1.078                                          !
 ! R14   R(7,8)                  1.4593                                         !
 ! R15   R(7,17)                 1.4161                                         !
 ! R16   R(8,9)                  1.3615                                         !
 ! R17   R(8,16)                 1.4418                                         !
 ! R18   R(9,10)                 1.3386                                         !
 ! R19   R(10,11)                1.3885                                         !
 ! R20   R(10,29)                1.0924                                         !
 ! R21   R(11,12)                1.4149                                         !
 ! R22   R(11,30)                1.0858                                         !
 ! R23   R(12,13)                1.3398                                         !
 ! R24   R(12,16)                1.4623                                         !
 ! R25   R(13,14)                1.693                                          !
 ! R26   R(14,15)                1.6907                                         !
 ! R27   R(15,16)                1.3438                                         !
 ! R28   R(17,18)                1.452                                          !
 ! R29   R(17,19)                1.3783                                         !
 ! R30   R(18,31)                1.0999                                         !
 ! R31   R(18,32)                1.0999                                         !
 ! R32   R(18,33)                1.0886                                         !
 ! R33   R(19,20)                1.4017                                         !
 ! R34   R(20,21)                1.394                                          !
 ! R35   R(20,34)                1.0834                                         !
 ! R36   R(21,22)                1.3808                                         !
 ! R37   R(22,23)                1.4074                                         !
 ! R38   R(23,35)                1.1008                                         !
 ! R39   R(23,36)                1.1007                                         !
 ! R40   R(23,37)                1.0937                                         !
 ! A1    A(2,1,24)             106.1677                                         !
 ! A2    A(2,1,25)             112.0479                                         !
 ! A3    A(2,1,26)             112.0481                                         !
 ! A4    A(24,1,25)            109.0949                                         !
 ! A5    A(24,1,26)            109.0968                                         !
 ! A6    A(25,1,26)            108.3103                                         !
 ! A7    A(1,2,3)              117.0672                                         !
 ! A8    A(2,3,4)              124.5929                                         !
 ! A9    A(2,3,21)             114.824                                          !
 ! A10   A(4,3,21)             120.5831                                         !
 ! A11   A(3,4,5)              119.7471                                         !
 ! A12   A(3,4,27)             120.7171                                         !
 ! A13   A(5,4,27)             119.5358                                         !
 ! A14   A(4,5,6)              134.5709                                         !
 ! A15   A(4,5,19)             118.7456                                         !
 ! A16   A(6,5,19)             106.6836                                         !
 ! A17   A(5,6,7)              108.5352                                         !
 ! A18   A(5,6,28)             127.9779                                         !
 ! A19   A(7,6,28)             123.4869                                         !
 ! A20   A(6,7,8)              127.294                                          !
 ! A21   A(6,7,17)             107.4441                                         !
 ! A22   A(8,7,17)             125.2619                                         !
 ! A23   A(7,8,9)              118.9387                                         !
 ! A24   A(7,8,16)             121.2009                                         !
 ! A25   A(9,8,16)             119.8604                                         !
 ! A26   A(8,9,10)             120.0417                                         !
 ! A27   A(9,10,11)            125.6007                                         !
 ! A28   A(9,10,29)            115.0897                                         !
 ! A29   A(11,10,29)           119.3096                                         !
 ! A30   A(10,11,12)           117.3403                                         !
 ! A31   A(10,11,30)           121.9299                                         !
 ! A32   A(12,11,30)           120.7298                                         !
 ! A33   A(11,12,13)           126.1979                                         !
 ! A34   A(11,12,16)           118.5125                                         !
 ! A35   A(13,12,16)           115.2896                                         !
 ! A36   A(12,13,14)           105.4782                                         !
 ! A37   A(13,14,15)            99.2052                                         !
 ! A38   A(14,15,16)           106.2325                                         !
 ! A39   A(8,16,12)            118.6443                                         !
 ! A40   A(8,16,15)            127.5611                                         !
 ! A41   A(12,16,15)           113.7945                                         !
 ! A42   A(7,17,18)            130.0226                                         !
 ! A43   A(7,17,19)            108.7254                                         !
 ! A44   A(18,17,19)           121.252                                          !
 ! A45   A(17,18,31)           110.2647                                         !
 ! A46   A(17,18,32)           110.2619                                         !
 ! A47   A(17,18,33)           107.9698                                         !
 ! A48   A(31,18,32)           108.0785                                         !
 ! A49   A(31,18,33)           110.142                                          !
 ! A50   A(32,18,33)           110.1294                                         !
 ! A51   A(5,19,17)            108.6117                                         !
 ! A52   A(5,19,20)            122.0725                                         !
 ! A53   A(17,19,20)           129.3158                                         !
 ! A54   A(19,20,21)           118.2484                                         !
 ! A55   A(19,20,34)           120.7633                                         !
 ! A56   A(21,20,34)           120.9883                                         !
 ! A57   A(3,21,20)            120.6033                                         !
 ! A58   A(3,21,22)            115.1743                                         !
 ! A59   A(20,21,22)           124.2224                                         !
 ! A60   A(21,22,23)           117.2406                                         !
 ! A61   A(22,23,35)           112.0633                                         !
 ! A62   A(22,23,36)           112.0601                                         !
 ! A63   A(22,23,37)           106.2023                                         !
 ! A64   A(35,23,36)           108.333                                          !
 ! A65   A(35,23,37)           109.0498                                         !
 ! A66   A(36,23,37)           109.053                                          !
 ! D1    D(24,1,2,3)          -179.9746                                         !
 ! D2    D(25,1,2,3)            61.0198                                         !
 ! D3    D(26,1,2,3)           -60.9667                                         !
 ! D4    D(1,2,3,4)             -0.031                                          !
 ! D5    D(1,2,3,21)           179.9716                                         !
 ! D6    D(2,3,4,5)            179.9989                                         !
 ! D7    D(2,3,4,27)            -0.0072                                         !
 ! D8    D(21,3,4,5)            -0.0038                                         !
 ! D9    D(21,3,4,27)          179.9901                                         !
 ! D10   D(2,3,21,20)         -179.9954                                         !
 ! D11   D(2,3,21,22)            0.0028                                         !
 ! D12   D(4,3,21,20)            0.007                                          !
 ! D13   D(4,3,21,22)         -179.9947                                         !
 ! D14   D(3,4,5,6)            179.9906                                         !
 ! D15   D(3,4,5,19)            -0.0046                                         !
 ! D16   D(27,4,5,6)            -0.0034                                         !
 ! D17   D(27,4,5,19)         -179.9986                                         !
 ! D18   D(4,5,6,7)           -179.9959                                         !
 ! D19   D(4,5,6,28)             0.0062                                         !
 ! D20   D(19,5,6,7)            -0.0004                                         !
 ! D21   D(19,5,6,28)         -179.9982                                         !
 ! D22   D(4,5,19,17)         -179.9974                                         !
 ! D23   D(4,5,19,20)            0.0103                                         !
 ! D24   D(6,5,19,17)            0.0062                                         !
 ! D25   D(6,5,19,20)         -179.9862                                         !
 ! D26   D(5,6,7,8)           -179.9993                                         !
 ! D27   D(5,6,7,17)            -0.0054                                         !
 ! D28   D(28,6,7,8)            -0.0014                                         !
 ! D29   D(28,6,7,17)          179.9925                                         !
 ! D30   D(6,7,8,9)            179.9366                                         !
 ! D31   D(6,7,8,16)            -0.059                                          !
 ! D32   D(17,7,8,9)            -0.0562                                         !
 ! D33   D(17,7,8,16)          179.9481                                         !
 ! D34   D(6,7,17,18)          179.9591                                         !
 ! D35   D(6,7,17,19)            0.0094                                         !
 ! D36   D(8,7,17,18)           -0.0469                                         !
 ! D37   D(8,7,17,19)         -179.9966                                         !
 ! D38   D(7,8,9,10)           179.9992                                         !
 ! D39   D(16,8,9,10)           -0.0051                                         !
 ! D40   D(7,8,16,12)         -179.9977                                         !
 ! D41   D(7,8,16,15)            0.0027                                         !
 ! D42   D(9,8,16,12)            0.0067                                         !
 ! D43   D(9,8,16,15)         -179.9929                                         !
 ! D44   D(8,9,10,11)            0.0013                                         !
 ! D45   D(8,9,10,29)         -179.9985                                         !
 ! D46   D(9,10,11,12)           0.0008                                         !
 ! D47   D(9,10,11,30)        -179.9993                                         !
 ! D48   D(29,10,11,12)       -179.9994                                         !
 ! D49   D(29,10,11,30)          0.0005                                         !
 ! D50   D(10,11,12,13)       -179.997                                          !
 ! D51   D(10,11,12,16)          0.0009                                         !
 ! D52   D(30,11,12,13)          0.0031                                         !
 ! D53   D(30,11,12,16)       -179.9989                                         !
 ! D54   D(11,12,13,14)       -179.9997                                         !
 ! D55   D(16,12,13,14)          0.0023                                         !
 ! D56   D(11,12,16,8)          -0.0045                                         !
 ! D57   D(11,12,16,15)        179.9951                                         !
 ! D58   D(13,12,16,8)         179.9936                                         !
 ! D59   D(13,12,16,15)         -0.0067                                         !
 ! D60   D(12,13,14,15)          0.0017                                         !
 ! D61   D(13,14,15,16)         -0.0054                                         !
 ! D62   D(14,15,16,8)        -179.9931                                         !
 ! D63   D(14,15,16,12)          0.0073                                         !
 ! D64   D(7,17,18,31)        -120.3316                                         !
 ! D65   D(7,17,18,32)         120.3993                                         !
 ! D66   D(7,17,18,33)           0.0423                                         !
 ! D67   D(19,17,18,31)         59.6126                                         !
 ! D68   D(19,17,18,32)        -59.6565                                         !
 ! D69   D(19,17,18,33)        179.9866                                         !
 ! D70   D(7,17,19,5)           -0.0097                                         !
 ! D71   D(7,17,19,20)         179.982                                          !
 ! D72   D(18,17,19,5)        -179.9646                                         !
 ! D73   D(18,17,19,20)          0.027                                          !
 ! D74   D(5,19,20,21)          -0.0071                                         !
 ! D75   D(5,19,20,34)         179.9929                                         !
 ! D76   D(17,19,20,21)       -179.9978                                         !
 ! D77   D(17,19,20,34)          0.0023                                         !
 ! D78   D(19,20,21,3)          -0.0015                                         !
 ! D79   D(19,20,21,22)       -179.9996                                         !
 ! D80   D(34,20,21,3)         179.9984                                         !
 ! D81   D(34,20,21,22)          0.0003                                         !
 ! D82   D(3,21,22,23)         179.948                                          !
 ! D83   D(20,21,22,23)         -0.0539                                         !
 ! D84   D(21,22,23,35)         61.0619                                         !
 ! D85   D(21,22,23,36)        -60.9741                                         !
 ! D86   D(21,22,23,37)       -179.9571                                         !
 --------------------------------------------------------------------------------
 NAtoms=     37 NQM=       37 NQMF=       0 NMMI=      0 NMMIF=      0
                NMic=       0 NMicF=      0.
                    Isotopes and Nuclear Properties:
 (Nuclear quadrupole moments (NQMom) in fm**2, nuclear magnetic moments (NMagM)
  in nuclear magnetons)

  Atom         1           2           3           4           5           6           7           8           9          10
 IAtWgt=          12          16          12          12          12          12          12          12          14          12
 AtmWgt=  12.0000000  15.9949146  12.0000000  12.0000000  12.0000000  12.0000000  12.0000000  12.0000000  14.0030740  12.0000000
 NucSpn=           0           0           0           0           0           0           0           0           2           0
 AtZEff=   3.6000000   5.6000000   3.6000000   3.6000000   3.6000000   3.6000000   3.6000000   3.6000000   4.5500000   3.6000000
 NQMom=    0.0000000   0.0000000   0.0000000   0.0000000   0.0000000   0.0000000   0.0000000   0.0000000   2.0440000   0.0000000
 NMagM=    0.0000000   0.0000000   0.0000000   0.0000000   0.0000000   0.0000000   0.0000000   0.0000000   0.4037610   0.0000000
 AtZNuc=   6.0000000   8.0000000   6.0000000   6.0000000   6.0000000   6.0000000   6.0000000   6.0000000   7.0000000   6.0000000

  Atom        11          12          13          14          15          16          17          18          19          20
 IAtWgt=          12          12          14          32          14          12          14          12          12          12
 AtmWgt=  12.0000000  12.0000000  14.0030740  31.9720718  14.0030740  12.0000000  14.0030740  12.0000000  12.0000000  12.0000000
 NucSpn=           0           0           2           0           2           0           2           0           0           0
 AtZEff=   3.6000000   3.6000000   4.5500000  13.6000000   4.5500000   3.6000000   4.5500000   3.6000000   3.6000000   3.6000000
 NQMom=    0.0000000   0.0000000   2.0440000   0.0000000   2.0440000   0.0000000   2.0440000   0.0000000   0.0000000   0.0000000
 NMagM=    0.0000000   0.0000000   0.4037610   0.0000000   0.4037610   0.0000000   0.4037610   0.0000000   0.0000000   0.0000000
 AtZNuc=   6.0000000   6.0000000   7.0000000  16.0000000   7.0000000   6.0000000   7.0000000   6.0000000   6.0000000   6.0000000

  Atom        21          22          23          24          25          26          27          28          29          30
 IAtWgt=          12          16          12           1           1           1           1           1           1           1
 AtmWgt=  12.0000000  15.9949146  12.0000000   1.0078250   1.0078250   1.0078250   1.0078250   1.0078250   1.0078250   1.0078250
 NucSpn=           0           0           0           1           1           1           1           1           1           1
 AtZEff=   3.6000000   5.6000000   3.6000000   1.0000000   1.0000000   1.0000000   1.0000000   1.0000000   1.0000000   1.0000000
 NQMom=    0.0000000   0.0000000   0.0000000   0.0000000   0.0000000   0.0000000   0.0000000   0.0000000   0.0000000   0.0000000
 NMagM=    0.0000000   0.0000000   0.0000000   2.7928460   2.7928460   2.7928460   2.7928460   2.7928460   2.7928460   2.7928460
 AtZNuc=   6.0000000   8.0000000   6.0000000   1.0000000   1.0000000   1.0000000   1.0000000   1.0000000   1.0000000   1.0000000

  Atom        31          32          33          34          35          36          37
 IAtWgt=           1           1           1           1           1           1           1
 AtmWgt=   1.0078250   1.0078250   1.0078250   1.0078250   1.0078250   1.0078250   1.0078250
 NucSpn=           1           1           1           1           1           1           1
 AtZEff=   1.0000000   1.0000000   1.0000000   1.0000000   1.0000000   1.0000000   1.0000000
 NQMom=    0.0000000   0.0000000   0.0000000   0.0000000   0.0000000   0.0000000   0.0000000
 NMagM=    2.7928460   2.7928460   2.7928460   2.7928460   2.7928460   2.7928460   2.7928460
 AtZNuc=   1.0000000   1.0000000   1.0000000   1.0000000   1.0000000   1.0000000   1.0000000
 Leave Link  101 at Mon Jun  3 12:24:39 2024, MaxMem=   104857600 cpu:               0.8 elap:               0.4
 (Enter /software/spackages_v0_21_prod/apps/linux-ubuntu22.04-zen2/gcc-13.2.0/gaussian_sse4-16-C-g6jkfwqig4o4stofyyxv7ma3rrfxhpfk/g16/l202.exe)
                          Input orientation:                          
 ---------------------------------------------------------------------
 Center     Atomic      Atomic             Coordinates (Angstroms)
 Number     Number       Type             X           Y           Z
 ---------------------------------------------------------------------
      1          6           0        4.602804    2.080370    1.558991
      2          8           0        4.446056    0.849692    0.892913
      3          6           0        3.156320    0.462599    0.582260
      4          6           0        2.017457    1.200319    0.881712
      5          6           0        0.747238    0.706607    0.515953
      6          6           0       -0.585383    1.179037    0.658823
      7          6           0       -1.450081    0.244334    0.091656
      8          6           0       -2.905380    0.319501    0.013351
      9          7           0       -3.586385   -0.697014   -0.583877
     10          6           0       -4.921577   -0.650803   -0.667829
     11          6           0       -5.726686    0.373329   -0.187429
     12          6           0       -5.083485    1.462992    0.445662
     13          7           0       -5.683706    2.539636    0.970775
     14         16           0       -4.432068    3.500320    1.584546
     15          7           0       -3.114666    2.524512    1.171399
     16          6           0       -3.625364    1.445277    0.554757
     17          7           0       -0.658181   -0.817715   -0.408749
     18          6           0       -1.054463   -2.037849   -1.088754
     19          6           0        0.667413   -0.539770   -0.153122
     20          6           0        1.808282   -1.293707   -0.460899
     21          6           0        3.053255   -0.787616   -0.090539
     22          8           0        4.253876   -1.425525   -0.331795
     23          6           0        4.202443   -2.666252   -0.994059
     24          1           0        5.678076    2.208060    1.713926
     25          1           0        4.094874    2.089383    2.535137
     26          1           0        4.222214    2.923814    0.963441
     27          1           0        2.093452    2.153058    1.394402
     28          1           0       -0.918638    2.095214    1.118765
     29          1           0       -5.384549   -1.507816   -1.162274
     30          1           0       -6.807557    0.349385   -0.288080
     31          1           0       -0.721666   -2.917256   -0.518168
     32          1           0       -0.594401   -2.084367   -2.086681
     33          1           0       -2.139559   -2.036373   -1.176170
     34          1           0        1.722603   -2.244481   -0.973180
     35          1           0        3.758933   -2.581051   -1.997898
     36          1           0        3.630366   -3.415106   -0.425215
     37          1           0        5.238153   -3.004717   -1.088930
 ---------------------------------------------------------------------
                    Distance matrix (angstroms):
                    1          2          3          4          5
     1  C    0.000000
     2  O    1.408119   0.000000
     3  C    2.379811   1.381942   0.000000
     4  C    2.813754   2.453804   1.389572   0.000000
     5  C    4.223806   3.720729   2.422315   1.411024   0.000000
     6  C    5.342283   5.047637   3.810444   2.612453   1.421084
     7  C    6.493190   5.981045   4.637592   3.682651   2.285156
     8  C    7.865271   7.422825   6.090020   5.075846   3.707301
     9  N    8.908903   8.312238   6.940363   6.095151   4.686157
    10  C   10.155385   9.614569   8.249533   7.346967   5.948055
    11  C   10.614252  10.241032   8.916737   7.861217   6.520546
    12  C    9.769588   9.559724   8.301436   7.119166   5.880000
    13  N   10.313544  10.270056   9.089064   7.817264   6.702529
    14  S    9.145809   9.291140   8.235045   6.883339   5.980965
    15  N    7.739950   7.749006   6.627506   5.308116   4.318413
    16  C    8.313518   8.100425   6.852566   5.657591   4.434726
    17  N    6.320511   5.525197   4.143878   3.591210   2.270206
    18  C    7.481640   6.520782   5.174478   4.879053   3.654210
    19  C    5.028296   4.159679   2.782119   2.433395   1.416859
    20  C    4.824283   3.658526   2.447447   2.840163   2.466032
    21  C    3.653409   2.363863   1.423488   2.443365   2.813938
    22  O    3.998515   2.591033   2.367517   3.656395   4.190605
    23  C    5.404514   3.997733   3.656345   4.821105   5.059126
    24  H    1.093855   2.009253   3.269029   3.886933   5.291754
    25  H    1.100424   2.087357   2.709435   2.799983   4.146786
    26  H    1.100421   2.087358   2.709061   2.799654   4.146288
    27  H    2.515794   2.735873   2.155671   1.084591   2.162449
    28  H    5.538984   5.512012   4.422506   3.078585   2.250946
    29  H   10.955710  10.316124   8.937135   8.142578   6.731934
    30  H   11.687785  11.326467  10.002458   8.942784   7.605854
    31  H    7.592156   6.548770   5.260526   5.139736   4.044684
    32  H    7.592555   6.549266   5.261007   5.140265   4.045150
    33  H    8.359912   7.482031   6.114186   5.656133   4.326756
    34  H    5.780293   4.524754   3.435581   3.923546   3.446415
    35  H    5.923886   4.538604   4.035364   5.061981   5.118442
    36  H    5.923087   4.537765   4.034392   5.060799   5.117298
    37  H    5.768298   4.405858   4.375978   5.651428   6.043004
                    6          7          8          9         10
     6  C    0.000000
     7  C    1.393933   0.000000
     8  C    2.556917   1.459341   0.000000
     9  N    3.750984   2.430283   1.361525   0.000000
    10  C    4.889877   3.664610   2.338919   1.338626   0.000000
    11  C    5.272410   4.287643   2.828954   2.425633   1.388464
    12  C    4.512094   3.848646   2.497721   2.822568   2.394620
    13  N    5.285966   4.895390   3.683036   4.158317   3.666710
    14  S    4.587190   4.660731   3.862259   4.799464   4.748119
    15  N    2.910380   3.022565   2.499389   3.698883   4.090269
    16  C    3.053392   2.527565   1.441829   2.426401   2.751079
    17  N    2.265398   1.416142   2.553690   2.935918   4.274520
    18  C    3.690856   2.599662   3.193373   2.909187   4.129848
    19  C    2.276631   2.271237   3.678439   4.278443   5.613738
    20  C    3.619099   3.645246   5.004594   5.428959   6.763664
    21  C    4.203445   4.623651   6.061504   6.658558   7.996869
    22  O    5.584218   5.958428   7.376936   7.878068   9.214230
    23  C    6.359366   6.449908   7.775007   8.044376   9.349663
    24  H    6.434519   7.569583   8.951777   9.977453  11.233809
    25  H    5.123874   6.334140   7.648231   8.746084   9.953089
    26  H    5.123478   6.333605   7.647726   8.745216   9.952277
    27  H    2.943798   4.230484   5.500686   6.655602   7.831031
    28  H    1.077955   2.182462   2.884829   4.220474   5.172624
    29  H    5.793752   4.485801   3.296583   2.055563   1.092379
    30  H    6.348260   5.371944   3.913916   3.399765   2.168296
    31  H    4.264211   3.301231   3.940522   3.624970   4.774773
    32  H    4.264701   3.301543   3.940728   3.624242   4.774170
    33  H    4.015162   2.698960   2.748015   2.058640   3.149260
    34  H    4.439674   4.170612   5.381958   5.543606   6.839457
    35  H    6.330048   6.283539   7.541312   7.713802   8.991450
    36  H    6.328809   6.282484   7.540266   7.713280   8.990882
    37  H    7.380516   7.528784   8.864682   9.135264  10.437353
                   11         12         13         14         15
    11  C    0.000000
    12  C    1.414878   0.000000
    13  N    2.456862   1.339840   0.000000
    14  S    3.820210   2.423243   1.692993   0.000000
    15  N    3.646457   2.351545   2.576906   1.690693   0.000000
    16  C    2.472947   1.462304   2.368008   2.436070   1.343803
    17  N    5.211268   5.051234   6.199258   6.071316   4.438656
    18  C    5.334402   5.553679   6.828245   7.016130   5.492528
    19  C    6.459059   6.119022   7.147209   6.733983   5.044631
    20  C    7.722017   7.477814   8.536633   8.130715   6.440389
    21  C    8.856892   8.459272   9.409116   8.787626   7.113784
    22  O   10.142403   9.804809  10.778437  10.167691   8.494574
    23  C   10.415244  10.264108  11.344504  10.919277   9.228939
    24  H   11.706835  10.861621  11.390886  10.193218   8.815145
    25  H   10.335389   9.434010   9.913152   8.695005   7.350278
    26  H   10.334897   9.433882   9.913369   8.695673   7.350680
    27  H    8.174606   7.272188   7.798274   6.665859   5.226107
    28  H    5.271466   4.265996   4.788035   3.812541   2.238215
    29  H    2.146179   3.391430   4.584895   5.790826   5.182476
    30  H    1.085811   2.179661   2.764952   4.367845   4.527549
    31  H    5.998964   6.256278   7.524391   7.705438   6.180123
    32  H    5.998981   6.256868   7.525322   7.706772   6.181309
    33  H    4.433030   4.852072   6.173347   6.597888   5.221454
    34  H    7.934875   7.879169   9.028851   8.799130   7.123320
    35  H   10.098669  10.025648  11.144410  10.812469   9.130037
    36  H   10.097684  10.024244  11.142696  10.810417   9.128181
    37  H   11.508762  11.351283  12.420517  11.957264  10.268936
                   16         17         18         19         20
    16  C    0.000000
    17  N    3.854044   0.000000
    18  C    4.630641   1.451955   0.000000
    19  C    4.782201   1.378332   2.466679   0.000000
    20  C    6.169126   2.512515   3.023782   1.401689   0.000000
    21  C    7.071504   3.725173   4.408271   2.399496   1.394006
    22  O    8.432669   4.950116   5.396886   3.698540   2.452544
    23  C    8.976529   5.233100   5.295178   4.210170   2.810719
    24  H    9.406354   7.335476   8.438592   6.011919   5.653984
    25  H    7.996178   6.301525   7.528765   5.087894   5.064586
    26  H    7.996097   6.300809   7.528142   5.087213   5.063921
    27  H    5.823299   4.432644   5.799925   3.417563   3.924749
    28  H    2.840227   3.299438   4.687622   3.328122   4.627767
    29  H    3.842354   4.835555   4.363025   6.211421   7.230117
    30  H    3.469540   6.260313   6.279973   7.528877   8.772817
    31  H    5.349237   2.103348   1.099854   2.777632   3.006631
    32  H    5.349984   2.103314   1.099853   2.777878   3.006858
    33  H    4.162405   2.066045   1.088613   3.341488   4.080271
    34  H    6.674554   2.832380   2.787140   2.166093   1.083394
    35  H    8.789494   5.014543   4.928527   4.138541   2.797258
    36  H    8.788020   5.013816   4.927955   4.137715   2.796712
    37  H   10.053164   6.325534   6.366463   5.276681   3.884069
                   21         22         23         24         25
    21  C    0.000000
    22  O    1.380805   0.000000
    23  C    2.380390   1.407353   0.000000
    24  H    4.372625   4.406388   5.767980   0.000000
    25  H    4.031906   4.538629   5.923078   1.787456   0.000000
    26  H    4.031383   4.538214   5.922925   1.787475   1.784018
    27  H    3.431302   4.522549   5.777399   3.599257   2.304566
    28  H    5.054608   6.422976   7.304865   6.624468   5.209746
    29  H    8.536031   9.674487   9.658192  12.019231  10.792134
    30  H    9.928112  11.203014  11.437333  12.780991  11.395664
    31  H    4.355256   5.197693   4.953415   8.497517   7.588686
    32  H    4.355633   5.198027   4.954001   8.497853   7.795555
    33  H    5.450073   6.477817   6.375805   9.353249   8.346485
    34  H    2.161515   2.736677   2.515538   6.533867   6.059565
    35  H    2.711533   2.087129   1.100751   6.355811   6.517224
    36  H    2.710862   2.087085   1.100744   6.355236   6.267283
    37  H    3.268961   2.008956   1.093734   5.934861   6.355376
                   26         27         28         29         30
    26  H    0.000000
    27  H    2.304652   0.000000
    28  H    5.209517   3.025229   0.000000
    29  H   10.791103   8.709712   6.174895   0.000000
    30  H   11.395167   9.236446   6.301309   2.497672   0.000000
    31  H    7.794563   6.106627   5.276666   4.913642   6.911003
    32  H    7.588471   6.107230   5.277207   4.912479   6.910964
    33  H    8.345870   6.486721   4.881330   3.287784   5.317025
    34  H    6.058864   5.008126   5.494119   7.147730   8.942099
    35  H    6.267990   6.057501   7.311683   9.244098  11.097821
    36  H    6.516176   6.056200   7.310331   9.243901  11.096867
    37  H    6.355458   6.531365   8.293931  10.727902  12.529585
                   31         32         33         34         35
    31  H    0.000000
    32  H    1.780486   0.000000
    33  H    1.794253   1.794114   0.000000
    34  H    2.575677   2.575661   3.873088   0.000000
    35  H    4.730581   4.382475   5.980310   2.304336   0.000000
    36  H    4.381402   4.730750   5.979705   2.304385   1.784800
    37  H    5.987726   5.988425   7.441501   3.598673   1.787123
                   36         37
    36  H    0.000000
    37  H    1.787153   0.000000
 Symmetry turned off by external request.
 Stoichiometry    C16H14N4O2S
 Framework group  C1[X(C16H14N4O2S)]
 Deg. of freedom   105
 Full point group                 C1      NOp   1
 Rotational constants (GHZ):           0.5282819           0.1155607           0.0949905
 Leave Link  202 at Mon Jun  3 12:24:39 2024, MaxMem=   104857600 cpu:               0.2 elap:               0.2
 (Enter /software/spackages_v0_21_prod/apps/linux-ubuntu22.04-zen2/gcc-13.2.0/gaussian_sse4-16-C-g6jkfwqig4o4stofyyxv7ma3rrfxhpfk/g16/l301.exe)
 Standard basis: 6-31G(d) (6D, 7F)
 Ernie: Thresh=  0.10000D-02 Tol=  0.10000D-05 Strict=F.
   377 basis functions,   724 primitive gaussians,   377 cartesian basis functions
    85 alpha electrons       85 beta electrons
       nuclear repulsion energy      1934.7414182470 Hartrees.
 IExCor=  402 DFT=T Ex+Corr=B3LYP ExCW=0 ScaHFX=  0.200000
 ScaDFX=  0.800000  0.720000  1.000000  0.810000 ScalE2=  1.000000  1.000000
 IRadAn=      5 IRanWt=     -1 IRanGd=            0 ICorTp=0 IEmpDi=  4
 NAtoms=   37 NActive=   37 NUniq=   37 SFac= 1.00D+00 NAtFMM=   60 NAOKFM=F Big=F
 Integral buffers will be    131072 words long.
 Raffenetti 2 integral format.
 Two-electron integral symmetry is turned off.
 Leave Link  301 at Mon Jun  3 12:24:39 2024, MaxMem=   104857600 cpu:               0.1 elap:               0.1
 (Enter /software/spackages_v0_21_prod/apps/linux-ubuntu22.04-zen2/gcc-13.2.0/gaussian_sse4-16-C-g6jkfwqig4o4stofyyxv7ma3rrfxhpfk/g16/l302.exe)
 NPDir=0 NMtPBC=     1 NCelOv=     1 NCel=       1 NClECP=     1 NCelD=      1
         NCelK=      1 NCelE2=     1 NClLst=     1 CellRange=     0.0.
 One-electron integrals computed using PRISM.
 NBasis=   377 RedAO= T EigKep=  3.01D-04  NBF=   377
 NBsUse=   377 1.00D-06 EigRej= -1.00D+00 NBFU=   377
 Precomputing XC quadrature grid using
 IXCGrd= 4 IRadAn=           5 IRanWt=          -1 IRanGd=           0 AccXCQ= 0.00D+00.
 Generated NRdTot=       0 NPtTot=           0 NUsed=           0 NTot=          32
 NSgBfM=   372   372   372   372   372 MxSgAt=    37 MxSgA2=    37.
 Leave Link  302 at Mon Jun  3 12:24:41 2024, MaxMem=   104857600 cpu:               3.7 elap:               2.0
 (Enter /software/spackages_v0_21_prod/apps/linux-ubuntu22.04-zen2/gcc-13.2.0/gaussian_sse4-16-C-g6jkfwqig4o4stofyyxv7ma3rrfxhpfk/g16/l303.exe)
 DipDrv:  MaxL=1.
 Leave Link  303 at Mon Jun  3 12:24:42 2024, MaxMem=   104857600 cpu:               0.4 elap:               0.2
 (Enter /software/spackages_v0_21_prod/apps/linux-ubuntu22.04-zen2/gcc-13.2.0/gaussian_sse4-16-C-g6jkfwqig4o4stofyyxv7ma3rrfxhpfk/g16/l401.exe)
 ExpMin= 1.17D-01 ExpMax= 2.19D+04 ExpMxC= 3.30D+03 IAcc=3 IRadAn=         5 AccDes= 0.00D+00
 Harris functional with IExCor=  402 and IRadAn=       5 diagonalized for initial guess.
 HarFok:  IExCor=  402 AccDes= 0.00D+00 IRadAn=         5 IDoV= 1 UseB2=F ITyADJ=14
 ICtDFT=  3500011 ScaDFX=  1.000000  1.000000  1.000000  1.000000
 FoFCou: FMM=F IPFlag=           0 FMFlag=      100000 FMFlg1=           0
         NFxFlg=           0 DoJE=T BraDBF=F KetDBF=T FulRan=T
         wScrn=  0.000000 ICntrl=       500 IOpCl=  0 I1Cent=   200000004 NGrid=           0
         NMat0=    1 NMatS0=      1 NMatT0=    0 NMatD0=    1 NMtDS0=    0 NMtDT0=    0
 Symmetry not used in FoFCou.
 Harris En= -1385.63553430788    
 JPrj=0 DoOrth=F DoCkMO=F.
 Leave Link  401 at Mon Jun  3 12:24:50 2024, MaxMem=   104857600 cpu:              17.3 elap:               8.7
 (Enter /software/spackages_v0_21_prod/apps/linux-ubuntu22.04-zen2/gcc-13.2.0/gaussian_sse4-16-C-g6jkfwqig4o4stofyyxv7ma3rrfxhpfk/g16/l502.exe)
 Two-electron integral symmetry not used.
 Closed shell SCF:
 Using DIIS extrapolation, IDIIS=  1040.
 NGot=   104857600 LenX=   104567031 LenY=   104424461
 Requested convergence on RMS density matrix=1.00D-08 within 128 cycles.
 Requested convergence on MAX density matrix=1.00D-06.
 Requested convergence on             energy=1.00D-06.
 No special actions if energy rises.
 Fock matrices will be formed incrementally for  20 cycles.
 Integral accuracy reduced to 1.0D-05 until final iterations.

 Cycle   1  Pass 0  IDiag  1:
 FoFJK:  IHMeth= 1 ICntrl=       0 DoSepK=F KAlg= 0 I1Cent=           0 FoldK=F
 IRaf= 710000000 NMat=       1 IRICut=       1 DoRegI=T DoRafI=F ISym2E= 0 IDoP0=0 IntGTp=1.
 FoFCou: FMM=F IPFlag=           0 FMFlag=      100000 FMFlg1=           0
         NFxFlg=           0 DoJE=F BraDBF=F KetDBF=F FulRan=T
         wScrn=  0.000000 ICntrl=         0 IOpCl=  0 I1Cent=           0 NGrid=           0
         NMat0=    1 NMatS0=      1 NMatT0=    0 NMatD0=    1 NMtDS0=    0 NMtDT0=    0
 Symmetry not used in FoFCou.
 E= -1385.15870508163    
 DIIS: error= 3.18D-02 at cycle   1 NSaved=   1.
 NSaved= 1 IEnMin= 1 EnMin= -1385.15870508163     IErMin= 1 ErrMin= 3.18D-02
 ErrMax= 3.18D-02  0.00D+00 EMaxC= 1.00D-01 BMatC= 5.24D-01 BMatP= 5.24D-01
 IDIUse=3 WtCom= 6.82D-01 WtEn= 3.18D-01
 Coeff-Com:  0.100D+01
 Coeff-En:   0.100D+01
 Coeff:      0.100D+01
 Gap=     0.044 Goal=   None    Shift=    0.000
 GapD=    0.044 DampG=0.250 DampE=0.500 DampFc=0.2500 IDamp=-1.
 Damping current iteration by 2.50D-01
 RMSDP=8.54D-03 MaxDP=7.29D-01              OVMax= 7.36D-01

 Cycle   2  Pass 0  IDiag  1:
 RMSU=  2.12D-03    CP:  9.89D-01
 E= -1385.29008434987     Delta-E=       -0.131379268240 Rises=F Damp=T
 DIIS: error= 1.53D-02 at cycle   2 NSaved=   2.
 NSaved= 2 IEnMin= 2 EnMin= -1385.29008434987     IErMin= 2 ErrMin= 1.53D-02
 ErrMax= 1.53D-02  0.00D+00 EMaxC= 1.00D-01 BMatC= 1.13D-01 BMatP= 5.24D-01
 IDIUse=3 WtCom= 8.47D-01 WtEn= 1.53D-01
 Coeff-Com: -0.403D+00 0.140D+01
 Coeff-En:   0.212D+00 0.788D+00
 Coeff:     -0.309D+00 0.131D+01
 Gap=     0.098 Goal=   None    Shift=    0.000
 RMSDP=2.99D-03 MaxDP=1.78D-01 DE=-1.31D-01 OVMax= 8.24D-01

 Cycle   3  Pass 0  IDiag  1:
 RMSU=  2.70D-03    CP:  9.65D-01  4.36D-01
 E= -1385.45426755228     Delta-E=       -0.164183202413 Rises=F Damp=F
 DIIS: error= 2.84D-02 at cycle   3 NSaved=   3.
 NSaved= 3 IEnMin= 3 EnMin= -1385.45426755228     IErMin= 2 ErrMin= 1.53D-02
 ErrMax= 2.84D-02  0.00D+00 EMaxC= 1.00D-01 BMatC= 2.04D-01 BMatP= 1.13D-01
 IDIUse=2 WtCom= 0.00D+00 WtEn= 1.00D+00
 Coeff-En:   0.000D+00 0.249D+00 0.751D+00
 Coeff:      0.000D+00 0.249D+00 0.751D+00
 Gap=     0.365 Goal=   None    Shift=    0.000
 RMSDP=6.05D-03 MaxDP=3.72D-01 DE=-1.64D-01 OVMax= 6.64D-01

 Cycle   4  Pass 0  IDiag  1:
 RMSU=  4.11D-03    CP:  9.61D-01  2.02D+00 -7.58D-02
 E= -1383.54060696207     Delta-E=        1.913660590209 Rises=F Damp=F
 DIIS: error= 9.54D-02 at cycle   4 NSaved=   4.
 NSaved= 4 IEnMin= 3 EnMin= -1385.45426755228     IErMin= 2 ErrMin= 1.53D-02
 ErrMax= 9.54D-02  0.00D+00 EMaxC= 1.00D-01 BMatC= 1.70D+00 BMatP= 1.13D-01
 IDIUse=2 WtCom= 0.00D+00 WtEn= 1.00D+00
 Coeff-En:   0.000D+00 0.000D+00 0.827D+00 0.173D+00
 Coeff:      0.000D+00 0.000D+00 0.827D+00 0.173D+00
 Gap=     0.054 Goal=   None    Shift=    0.000
 RMSDP=4.57D-03 MaxDP=2.58D-01 DE= 1.91D+00 OVMax= 7.91D-01

 Cycle   5  Pass 0  IDiag  1:
 RMSU=  1.94D-03    CP:  9.70D-01  7.83D-01  3.79D-01  2.80D-01
 E= -1385.57055653477     Delta-E=       -2.029949572699 Rises=F Damp=F
 DIIS: error= 1.78D-02 at cycle   5 NSaved=   5.
 NSaved= 5 IEnMin= 5 EnMin= -1385.57055653477     IErMin= 2 ErrMin= 1.53D-02
 ErrMax= 1.78D-02  0.00D+00 EMaxC= 1.00D-01 BMatC= 1.36D-01 BMatP= 1.13D-01
 IDIUse=2 WtCom= 0.00D+00 WtEn= 1.00D+00
 Coeff-En:   0.000D+00 0.000D+00 0.390D+00 0.000D+00 0.610D+00
 Coeff:      0.000D+00 0.000D+00 0.390D+00 0.000D+00 0.610D+00
 Gap=     0.060 Goal=   None    Shift=    0.000
 RMSDP=1.71D-03 MaxDP=1.14D-01 DE=-2.03D+00 OVMax= 1.78D-01

 Cycle   6  Pass 0  IDiag  1:
 RMSU=  1.06D-03    CP:  9.69D-01  6.35D-01  6.39D-01  1.24D-01  5.45D-01
 E= -1385.67802115185     Delta-E=       -0.107464617082 Rises=F Damp=F
 DIIS: error= 7.51D-03 at cycle   6 NSaved=   6.
 NSaved= 6 IEnMin= 6 EnMin= -1385.67802115185     IErMin= 6 ErrMin= 7.51D-03
 ErrMax= 7.51D-03  0.00D+00 EMaxC= 1.00D-01 BMatC= 4.82D-02 BMatP= 1.13D-01
 IDIUse=3 WtCom= 9.25D-01 WtEn= 7.51D-02
 Coeff-Com: -0.358D-01 0.856D-01 0.214D+00-0.131D-01 0.390D+00 0.359D+00
 Coeff-En:   0.000D+00 0.000D+00 0.000D+00 0.000D+00 0.260D+00 0.740D+00
 Coeff:     -0.331D-01 0.791D-01 0.198D+00-0.121D-01 0.380D+00 0.388D+00
 Gap=     0.087 Goal=   None    Shift=    0.000
 RMSDP=7.89D-04 MaxDP=4.82D-02 DE=-1.07D-01 OVMax= 8.75D-02

 Cycle   7  Pass 0  IDiag  1:
 RMSU=  3.33D-04    CP:  9.68D-01  6.24D-01  6.00D-01  1.35D-01  6.53D-01
                    CP:  3.67D-01
 E= -1385.72242189853     Delta-E=       -0.044400746679 Rises=F Damp=F
 DIIS: error= 2.36D-03 at cycle   7 NSaved=   7.
 NSaved= 7 IEnMin= 7 EnMin= -1385.72242189853     IErMin= 7 ErrMin= 2.36D-03
 ErrMax= 2.36D-03  0.00D+00 EMaxC= 1.00D-01 BMatC= 3.48D-03 BMatP= 4.82D-02
 IDIUse=3 WtCom= 9.76D-01 WtEn= 2.36D-02
 Coeff-Com: -0.159D-01 0.301D-01 0.668D-01-0.975D-02 0.183D+00 0.253D+00
 Coeff-Com:  0.493D+00
 Coeff-En:   0.000D+00 0.000D+00 0.000D+00 0.000D+00 0.000D+00 0.150D-01
 Coeff-En:   0.985D+00
 Coeff:     -0.155D-01 0.294D-01 0.652D-01-0.952D-02 0.179D+00 0.247D+00
 Coeff:      0.504D+00
 Gap=     0.084 Goal=   None    Shift=    0.000
 RMSDP=2.67D-04 MaxDP=1.52D-02 DE=-4.44D-02 OVMax= 3.45D-02

 Cycle   8  Pass 0  IDiag  1:
 RMSU=  1.96D-04    CP:  9.68D-01  6.34D-01  5.99D-01  1.30D-01  6.53D-01
                    CP:  4.61D-01  5.54D-01
 E= -1385.72418558472     Delta-E=       -0.001763686187 Rises=F Damp=F
 DIIS: error= 1.95D-03 at cycle   8 NSaved=   8.
 NSaved= 8 IEnMin= 8 EnMin= -1385.72418558472     IErMin= 8 ErrMin= 1.95D-03
 ErrMax= 1.95D-03  0.00D+00 EMaxC= 1.00D-01 BMatC= 1.78D-03 BMatP= 3.48D-03
 IDIUse=3 WtCom= 9.80D-01 WtEn= 1.95D-02
 Coeff-Com: -0.299D-02 0.272D-02-0.210D-02-0.185D-02 0.422D-01 0.998D-01
 Coeff-Com:  0.433D+00 0.429D+00
 Coeff-En:   0.000D+00 0.000D+00 0.000D+00 0.000D+00 0.000D+00 0.000D+00
 Coeff-En:   0.370D+00 0.630D+00
 Coeff:     -0.293D-02 0.267D-02-0.206D-02-0.181D-02 0.414D-01 0.978D-01
 Coeff:      0.432D+00 0.433D+00
 Gap=     0.084 Goal=   None    Shift=    0.000
 RMSDP=1.28D-04 MaxDP=8.30D-03 DE=-1.76D-03 OVMax= 1.52D-02

 Cycle   9  Pass 0  IDiag  1:
 RMSU=  5.39D-05    CP:  9.68D-01  6.34D-01  5.97D-01  1.33D-01  6.57D-01
                    CP:  4.61D-01  7.22D-01  4.84D-01
 E= -1385.72586217169     Delta-E=       -0.001676586965 Rises=F Damp=F
 DIIS: error= 4.43D-04 at cycle   9 NSaved=   9.
 NSaved= 9 IEnMin= 9 EnMin= -1385.72586217169     IErMin= 9 ErrMin= 4.43D-04
 ErrMax= 4.43D-04  0.00D+00 EMaxC= 1.00D-01 BMatC= 1.19D-04 BMatP= 1.78D-03
 IDIUse=3 WtCom= 9.96D-01 WtEn= 4.43D-03
 Coeff-Com: -0.335D-03-0.140D-02-0.902D-02-0.820D-04 0.103D-01 0.404D-01
 Coeff-Com:  0.244D+00 0.287D+00 0.429D+00
 Coeff-En:   0.000D+00 0.000D+00 0.000D+00 0.000D+00 0.000D+00 0.000D+00
 Coeff-En:   0.000D+00 0.197D-02 0.998D+00
 Coeff:     -0.334D-03-0.140D-02-0.898D-02-0.816D-04 0.103D-01 0.402D-01
 Coeff:      0.242D+00 0.286D+00 0.432D+00
 Gap=     0.084 Goal=   None    Shift=    0.000
 RMSDP=3.45D-05 MaxDP=1.33D-03 DE=-1.68D-03 OVMax= 4.60D-03

 Cycle  10  Pass 0  IDiag  1:
 RMSU=  2.02D-05    CP:  9.68D-01  6.33D-01  5.96D-01  1.33D-01  6.58D-01
                    CP:  4.58D-01  7.31D-01  5.47D-01  5.45D-01
 E= -1385.72597367451     Delta-E=       -0.000111502825 Rises=F Damp=F
 DIIS: error= 7.53D-05 at cycle  10 NSaved=  10.
 NSaved=10 IEnMin=10 EnMin= -1385.72597367451     IErMin=10 ErrMin= 7.53D-05
 ErrMax= 7.53D-05  0.00D+00 EMaxC= 1.00D-01 BMatC= 6.60D-06 BMatP= 1.19D-04
 IDIUse=1 WtCom= 1.00D+00 WtEn= 0.00D+00
 Coeff-Com: -0.871D-03 0.634D-03-0.475D-02 0.878D-04 0.239D-02 0.122D-01
 Coeff-Com:  0.924D-01 0.110D+00 0.238D+00 0.549D+00
 Coeff:     -0.871D-03 0.634D-03-0.475D-02 0.878D-04 0.239D-02 0.122D-01
 Coeff:      0.924D-01 0.110D+00 0.238D+00 0.549D+00
 Gap=     0.084 Goal=   None    Shift=    0.000
 RMSDP=8.96D-06 MaxDP=3.76D-04 DE=-1.12D-04 OVMax= 1.09D-03

 Initial convergence to 1.0D-05 achieved.  Increase integral accuracy.
 Cycle  11  Pass 1  IDiag  1:
 E= -1385.72593990749     Delta-E=        0.000033767017 Rises=F Damp=F
 DIIS: error= 1.13D-04 at cycle   1 NSaved=   1.
 NSaved= 1 IEnMin= 1 EnMin= -1385.72593990749     IErMin= 1 ErrMin= 1.13D-04
 ErrMax= 1.13D-04  0.00D+00 EMaxC= 1.00D-01 BMatC= 2.27D-06 BMatP= 2.27D-06
 IDIUse=3 WtCom= 9.99D-01 WtEn= 1.13D-03
 Coeff-Com:  0.100D+01
 Coeff-En:   0.100D+01
 Coeff:      0.100D+01
 Gap=     0.084 Goal=   None    Shift=    0.000
 RMSDP=8.96D-06 MaxDP=3.76D-04 DE= 3.38D-05 OVMax= 1.43D-03

 Cycle  12  Pass 1  IDiag  1:
 RMSU=  5.67D-05    CP:  1.00D+00
 E= -1385.72593506705     Delta-E=        0.000004840440 Rises=F Damp=F
 DIIS: error= 1.07D-04 at cycle   2 NSaved=   2.
 NSaved= 2 IEnMin= 1 EnMin= -1385.72593990749     IErMin= 2 ErrMin= 1.07D-04
 ErrMax= 1.07D-04  0.00D+00 EMaxC= 1.00D-01 BMatC= 6.13D-06 BMatP= 2.27D-06
 IDIUse=3 WtCom= 4.91D-01 WtEn= 5.09D-01
 Coeff-Com:  0.640D+00 0.360D+00
 Coeff-En:   0.733D+00 0.267D+00
 Coeff:      0.687D+00 0.313D+00
 Gap=     0.084 Goal=   None    Shift=    0.000
 RMSDP=8.76D-06 MaxDP=6.22D-04 DE= 4.84D-06 OVMax= 1.03D-03

 Cycle  13  Pass 1  IDiag  1:
 RMSU=  8.59D-06    CP:  1.00D+00  9.70D-01
 E= -1385.72594210998     Delta-E=       -0.000007042926 Rises=F Damp=F
 DIIS: error= 1.76D-05 at cycle   3 NSaved=   3.
 NSaved= 3 IEnMin= 3 EnMin= -1385.72594210998     IErMin= 3 ErrMin= 1.76D-05
 ErrMax= 1.76D-05  0.00D+00 EMaxC= 1.00D-01 BMatC= 2.03D-07 BMatP= 2.27D-06
 IDIUse=1 WtCom= 1.00D+00 WtEn= 0.00D+00
 Coeff-Com:  0.193D+00 0.140D+00 0.667D+00
 Coeff:      0.193D+00 0.140D+00 0.667D+00
 Gap=     0.084 Goal=   None    Shift=    0.000
 RMSDP=2.74D-06 MaxDP=1.78D-04 DE=-7.04D-06 OVMax= 3.36D-04

 Cycle  14  Pass 1  IDiag  1:
 RMSU=  2.63D-06    CP:  1.00D+00  9.77D-01  9.22D-01
 E= -1385.72594200051     Delta-E=        0.000000109470 Rises=F Damp=F
 DIIS: error= 2.47D-05 at cycle   4 NSaved=   4.
 NSaved= 4 IEnMin= 3 EnMin= -1385.72594210998     IErMin= 3 ErrMin= 1.76D-05
 ErrMax= 2.47D-05  0.00D+00 EMaxC= 1.00D-01 BMatC= 3.23D-07 BMatP= 2.03D-07
 IDIUse=1 WtCom= 1.00D+00 WtEn= 0.00D+00
 Coeff-Com:  0.142D-01 0.372D-01 0.548D+00 0.401D+00
 Coeff:      0.142D-01 0.372D-01 0.548D+00 0.401D+00
 Gap=     0.084 Goal=   None    Shift=    0.000
 RMSDP=1.78D-06 MaxDP=1.29D-04 DE= 1.09D-07 OVMax= 2.00D-04

 Cycle  15  Pass 1  IDiag  1:
 RMSU=  7.45D-07    CP:  1.00D+00  9.79D-01  9.46D-01  3.95D-01
 E= -1385.72594229058     Delta-E=       -0.000000290070 Rises=F Damp=F
 DIIS: error= 6.32D-06 at cycle   5 NSaved=   5.
 NSaved= 5 IEnMin= 5 EnMin= -1385.72594229058     IErMin= 5 ErrMin= 6.32D-06
 ErrMax= 6.32D-06  0.00D+00 EMaxC= 1.00D-01 BMatC= 2.63D-08 BMatP= 2.03D-07
 IDIUse=1 WtCom= 1.00D+00 WtEn= 0.00D+00
 Coeff-Com: -0.231D-02 0.191D-01 0.355D+00 0.294D+00 0.334D+00
 Coeff:     -0.231D-02 0.191D-01 0.355D+00 0.294D+00 0.334D+00
 Gap=     0.084 Goal=   None    Shift=    0.000
 RMSDP=4.72D-07 MaxDP=2.52D-05 DE=-2.90D-07 OVMax= 7.01D-05

 Cycle  16  Pass 1  IDiag  1:
 RMSU=  2.07D-07    CP:  1.00D+00  9.80D-01  9.51D-01  4.30D-01  4.48D-01
 E= -1385.72594231606     Delta-E=       -0.000000025483 Rises=F Damp=F
 DIIS: error= 6.94D-07 at cycle   6 NSaved=   6.
 NSaved= 6 IEnMin= 6 EnMin= -1385.72594231606     IErMin= 6 ErrMin= 6.94D-07
 ErrMax= 6.94D-07  0.00D+00 EMaxC= 1.00D-01 BMatC= 4.39D-10 BMatP= 2.63D-08
 IDIUse=1 WtCom= 1.00D+00 WtEn= 0.00D+00
 Coeff-Com: -0.215D-02 0.976D-02 0.169D+00 0.146D+00 0.173D+00 0.504D+00
 Coeff:     -0.215D-02 0.976D-02 0.169D+00 0.146D+00 0.173D+00 0.504D+00
 Gap=     0.084 Goal=   None    Shift=    0.000
 RMSDP=7.86D-08 MaxDP=2.97D-06 DE=-2.55D-08 OVMax= 8.32D-06

 Cycle  17  Pass 1  IDiag  1:
 RMSU=  6.86D-08    CP:  1.00D+00  9.80D-01  9.50D-01  4.32D-01  4.81D-01
                    CP:  8.71D-01
 E= -1385.72594231650     Delta-E=       -0.000000000443 Rises=F Damp=F
 DIIS: error= 2.80D-07 at cycle   7 NSaved=   7.
 NSaved= 7 IEnMin= 7 EnMin= -1385.72594231650     IErMin= 7 ErrMin= 2.80D-07
 ErrMax= 2.80D-07  0.00D+00 EMaxC= 1.00D-01 BMatC= 8.28D-11 BMatP= 4.39D-10
 IDIUse=1 WtCom= 1.00D+00 WtEn= 0.00D+00
 Coeff-Com: -0.731D-03 0.240D-02 0.251D-01 0.264D-01 0.210D-01 0.277D+00
 Coeff-Com:  0.649D+00
 Coeff:     -0.731D-03 0.240D-02 0.251D-01 0.264D-01 0.210D-01 0.277D+00
 Coeff:      0.649D+00
 Gap=     0.084 Goal=   None    Shift=    0.000
 RMSDP=3.94D-08 MaxDP=1.37D-06 DE=-4.43D-10 OVMax= 4.90D-06

 Cycle  18  Pass 1  IDiag  1:
 RMSU=  2.82D-08    CP:  1.00D+00  9.80D-01  9.49D-01  4.35D-01  4.78D-01
                    CP:  9.81D-01  8.58D-01
 E= -1385.72594231658     Delta-E=       -0.000000000076 Rises=F Damp=F
 DIIS: error= 1.78D-07 at cycle   8 NSaved=   8.
 NSaved= 8 IEnMin= 8 EnMin= -1385.72594231658     IErMin= 8 ErrMin= 1.78D-07
 ErrMax= 1.78D-07  0.00D+00 EMaxC= 1.00D-01 BMatC= 1.83D-11 BMatP= 8.28D-11
 IDIUse=1 WtCom= 1.00D+00 WtEn= 0.00D+00
 Coeff-Com: -0.871D-04-0.923D-04-0.137D-01-0.826D-02-0.190D-01 0.876D-01
 Coeff-Com:  0.416D+00 0.538D+00
 Coeff:     -0.871D-04-0.923D-04-0.137D-01-0.826D-02-0.190D-01 0.876D-01
 Coeff:      0.416D+00 0.538D+00
 Gap=     0.084 Goal=   None    Shift=    0.000
 RMSDP=1.77D-08 MaxDP=8.75D-07 DE=-7.64D-11 OVMax= 2.30D-06

 Cycle  19  Pass 1  IDiag  1:
 RMSU=  1.17D-08    CP:  1.00D+00  9.80D-01  9.49D-01  4.36D-01  4.81D-01
                    CP:  1.01D+00  9.88D-01  7.15D-01
 E= -1385.72594231656     Delta-E=        0.000000000020 Rises=F Damp=F
 DIIS: error= 5.30D-08 at cycle   9 NSaved=   9.
 NSaved= 9 IEnMin= 8 EnMin= -1385.72594231658     IErMin= 9 ErrMin= 5.30D-08
 ErrMax= 5.30D-08  0.00D+00 EMaxC= 1.00D-01 BMatC= 2.83D-12 BMatP= 1.83D-11
 IDIUse=1 WtCom= 1.00D+00 WtEn= 0.00D+00
 Coeff-Com:  0.760D-04-0.578D-03-0.139D-01-0.106D-01-0.171D-01-0.130D-02
 Coeff-Com:  0.133D+00 0.348D+00 0.562D+00
 Coeff:      0.760D-04-0.578D-03-0.139D-01-0.106D-01-0.171D-01-0.130D-02
 Coeff:      0.133D+00 0.348D+00 0.562D+00
 Gap=     0.084 Goal=   None    Shift=    0.000
 RMSDP=6.54D-09 MaxDP=2.53D-07 DE= 2.05D-11 OVMax= 7.09D-07

 SCF Done:  E(RB3LYP) =  -1385.72594232     A.U. after   19 cycles
            NFock= 19  Conv=0.65D-08     -V/T= 2.0078
 KE= 1.375008683126D+03 PE=-7.111593785442D+03 EE= 2.416117741752D+03
 Leave Link  502 at Mon Jun  3 12:28:19 2024, MaxMem=   104857600 cpu:             417.8 elap:             209.1
 (Enter /software/spackages_v0_21_prod/apps/linux-ubuntu22.04-zen2/gcc-13.2.0/gaussian_sse4-16-C-g6jkfwqig4o4stofyyxv7ma3rrfxhpfk/g16/l601.exe)
 Copying SCF densities to generalized density rwf, IOpCl= 0 IROHF=0.

 **********************************************************************

            Population analysis using the SCF Density.

 **********************************************************************

 Alpha  occ. eigenvalues --  -88.97422 -19.18019 -19.17171 -14.38439 -14.37822
 Alpha  occ. eigenvalues --  -14.37628 -14.33901 -10.25965 -10.25339 -10.25291
 Alpha  occ. eigenvalues --  -10.25022 -10.24390 -10.24077 -10.23527 -10.23208
 Alpha  occ. eigenvalues --  -10.22773 -10.21814 -10.20939 -10.20174 -10.19184
 Alpha  occ. eigenvalues --  -10.18821 -10.18417 -10.17811  -8.02920  -5.99469
 Alpha  occ. eigenvalues --   -5.98905  -5.98628  -1.06946  -1.04923  -1.00903
 Alpha  occ. eigenvalues --   -0.98081  -0.94202  -0.89213  -0.84338  -0.80448
 Alpha  occ. eigenvalues --   -0.79541  -0.77728  -0.74931  -0.73817  -0.70335
 Alpha  occ. eigenvalues --   -0.69779  -0.67625  -0.66447  -0.62609  -0.62115
 Alpha  occ. eigenvalues --   -0.59426  -0.58282  -0.56350  -0.52907  -0.52491
 Alpha  occ. eigenvalues --   -0.51963  -0.50257  -0.49426  -0.47212  -0.47108
 Alpha  occ. eigenvalues --   -0.46831  -0.45997  -0.45807  -0.45540  -0.45029
 Alpha  occ. eigenvalues --   -0.44864  -0.43222  -0.42923  -0.41129  -0.40246
 Alpha  occ. eigenvalues --   -0.39519  -0.39341  -0.38719  -0.38563  -0.38498
 Alpha  occ. eigenvalues --   -0.36093  -0.35827  -0.33744  -0.33740  -0.32611
 Alpha  occ. eigenvalues --   -0.32354  -0.31845  -0.30494  -0.28938  -0.28475
 Alpha  occ. eigenvalues --   -0.26895  -0.26341  -0.24578  -0.19938  -0.18910
 Alpha virt. eigenvalues --   -0.10541  -0.03020  -0.00805  -0.00042   0.01856
 Alpha virt. eigenvalues --    0.03789   0.05273   0.08487   0.08641   0.09877
 Alpha virt. eigenvalues --    0.10873   0.11290   0.12341   0.13848   0.15059
 Alpha virt. eigenvalues --    0.15394   0.15756   0.15885   0.16429   0.16473
 Alpha virt. eigenvalues --    0.17195   0.17314   0.17386   0.17647   0.17869
 Alpha virt. eigenvalues --    0.19188   0.20331   0.22311   0.22792   0.23960
 Alpha virt. eigenvalues --    0.24143   0.25646   0.26570   0.27449   0.28674
 Alpha virt. eigenvalues --    0.29799   0.30547   0.32595   0.34000   0.34391
 Alpha virt. eigenvalues --    0.34773   0.36752   0.37492   0.39736   0.40208
 Alpha virt. eigenvalues --    0.42152   0.43433   0.44228   0.45601   0.48064
 Alpha virt. eigenvalues --    0.49096   0.49363   0.51244   0.51295   0.52134
 Alpha virt. eigenvalues --    0.52633   0.52952   0.53974   0.54731   0.54919
 Alpha virt. eigenvalues --    0.55106   0.55296   0.55628   0.56188   0.56783
 Alpha virt. eigenvalues --    0.57303   0.58280   0.58517   0.59030   0.60302
 Alpha virt. eigenvalues --    0.61184   0.61710   0.61919   0.62438   0.63202
 Alpha virt. eigenvalues --    0.63936   0.64162   0.64866   0.65730   0.65744
 Alpha virt. eigenvalues --    0.68198   0.69813   0.71097   0.72333   0.72436
 Alpha virt. eigenvalues --    0.72662   0.74738   0.76740   0.77184   0.77387
 Alpha virt. eigenvalues --    0.78943   0.80116   0.80991   0.81067   0.82998
 Alpha virt. eigenvalues --    0.83834   0.84161   0.84525   0.84655   0.85305
 Alpha virt. eigenvalues --    0.85473   0.86079   0.86609   0.87828   0.87890
 Alpha virt. eigenvalues --    0.88692   0.88979   0.90604   0.91545   0.91886
 Alpha virt. eigenvalues --    0.93107   0.93571   0.94333   0.94913   0.95846
 Alpha virt. eigenvalues --    0.96287   0.98279   0.98698   0.99900   1.00869
 Alpha virt. eigenvalues --    1.00876   1.01657   1.02985   1.04466   1.05585
 Alpha virt. eigenvalues --    1.06410   1.08218   1.09483   1.10344   1.11631
 Alpha virt. eigenvalues --    1.12072   1.14886   1.15528   1.17589   1.18737
 Alpha virt. eigenvalues --    1.20748   1.21599   1.21626   1.23191   1.23279
 Alpha virt. eigenvalues --    1.26085   1.27531   1.28378   1.33357   1.33407
 Alpha virt. eigenvalues --    1.33592   1.34387   1.36494   1.36808   1.37635
 Alpha virt. eigenvalues --    1.38686   1.39373   1.40446   1.40866   1.42623
 Alpha virt. eigenvalues --    1.44067   1.45276   1.46899   1.47355   1.47820
 Alpha virt. eigenvalues --    1.48669   1.51393   1.51616   1.52140   1.57996
 Alpha virt. eigenvalues --    1.58460   1.62723   1.64237   1.67360   1.68509
 Alpha virt. eigenvalues --    1.69527   1.70903   1.71992   1.73172   1.74853
 Alpha virt. eigenvalues --    1.75420   1.77222   1.78857   1.80054   1.81180
 Alpha virt. eigenvalues --    1.82883   1.83640   1.84900   1.85205   1.86466
 Alpha virt. eigenvalues --    1.87322   1.88309   1.89957   1.90221   1.91094
 Alpha virt. eigenvalues --    1.91964   1.93210   1.94381   1.95595   1.96710
 Alpha virt. eigenvalues --    1.98084   1.99362   2.00517   2.03095   2.03998
 Alpha virt. eigenvalues --    2.05000   2.05802   2.07983   2.09746   2.09812
 Alpha virt. eigenvalues --    2.10890   2.14645   2.17019   2.17365   2.18537
 Alpha virt. eigenvalues --    2.20721   2.21467   2.22053   2.22469   2.24138
 Alpha virt. eigenvalues --    2.24180   2.24995   2.25239   2.26383   2.26699
 Alpha virt. eigenvalues --    2.27932   2.29649   2.30394   2.30483   2.32533
 Alpha virt. eigenvalues --    2.34910   2.36793   2.37956   2.39073   2.41132
 Alpha virt. eigenvalues --    2.41825   2.42190   2.45713   2.48637   2.49370
 Alpha virt. eigenvalues --    2.49644   2.52512   2.53365   2.54315   2.58522
 Alpha virt. eigenvalues --    2.59735   2.60767   2.62795   2.62950   2.64879
 Alpha virt. eigenvalues --    2.66058   2.67185   2.68082   2.69214   2.71615
 Alpha virt. eigenvalues --    2.73913   2.79105   2.80679   2.82277   2.85429
 Alpha virt. eigenvalues --    2.86428   2.90001   2.93239   2.93850   2.96321
 Alpha virt. eigenvalues --    2.99630   3.01189   3.07423   3.15291   3.17482
 Alpha virt. eigenvalues --    3.29774   3.32139   3.41609   3.48452   3.84097
 Alpha virt. eigenvalues --    3.95894   3.99488   4.00871   4.06346   4.08633
 Alpha virt. eigenvalues --    4.10201   4.11658   4.12207   4.17450   4.22271
 Alpha virt. eigenvalues --    4.24420   4.26173   4.29497   4.34985   4.36618
 Alpha virt. eigenvalues --    4.41093   4.42812   4.52328   4.59273   4.68553
 Alpha virt. eigenvalues --    4.74711   4.99958
          Condensed to atoms (all electrons):
               1          2          3          4          5          6
     1  C    4.887200   0.254347  -0.045772  -0.007764   0.000606  -0.000012
     2  O    0.254347   8.195082   0.280841  -0.062777   0.002907  -0.000029
     3  C   -0.045772   0.280841   4.700909   0.452372   0.017053   0.005877
     4  C   -0.007764  -0.062777   0.452372   5.374360   0.409145  -0.092121
     5  C    0.000606   0.002907   0.017053   0.409145   4.751563   0.398032
     6  C   -0.000012  -0.000029   0.005877  -0.092121   0.398032   5.355701
     7  C   -0.000000   0.000000  -0.000068   0.007466  -0.008658   0.499198
     8  C    0.000000  -0.000000   0.000002  -0.000186   0.004915  -0.052547
     9  N    0.000000   0.000000  -0.000000   0.000000  -0.000127   0.004841
    10  C    0.000000  -0.000000  -0.000000  -0.000000   0.000004  -0.000156
    11  C   -0.000000  -0.000000   0.000000   0.000000  -0.000000  -0.000012
    12  C   -0.000000  -0.000000   0.000000  -0.000000  -0.000004   0.000229
    13  N   -0.000000   0.000000  -0.000000  -0.000000  -0.000000   0.000007
    14  S   -0.000000   0.000000  -0.000000  -0.000000  -0.000004   0.000569
    15  N   -0.000000   0.000000  -0.000000  -0.000011   0.000333  -0.018034
    16  C   -0.000000  -0.000000   0.000000   0.000000   0.000462  -0.024647
    17  N   -0.000000  -0.000000  -0.000452   0.014426  -0.015294  -0.128289
    18  C    0.000000  -0.000000   0.000019  -0.000194   0.005547   0.007888
    19  C    0.000015   0.000009  -0.036077  -0.039226   0.476154  -0.043186
    20  C   -0.000104   0.003786  -0.060228  -0.070138  -0.065433   0.020380
    21  C    0.005519  -0.055016   0.454163  -0.057019  -0.027513  -0.000394
    22  O    0.000035  -0.001158  -0.054136   0.003583   0.000093  -0.000000
    23  C    0.000002   0.000039   0.005432  -0.000101   0.000011  -0.000000
    24  H    0.386595  -0.034505   0.003496   0.000022   0.000002   0.000000
    25  H    0.361212  -0.035829  -0.006333   0.006738  -0.000139  -0.000008
    26  H    0.361197  -0.035826  -0.006331   0.006752  -0.000139  -0.000008
    27  H    0.006507  -0.007709  -0.049932   0.350263  -0.032262  -0.005866
    28  H    0.000000  -0.000000  -0.000043  -0.004920  -0.032923   0.348926
    29  H    0.000000   0.000000  -0.000000   0.000000   0.000000   0.000002
    30  H   -0.000000  -0.000000  -0.000000  -0.000000   0.000000  -0.000000
    31  H    0.000000   0.000000  -0.000000  -0.000011  -0.000104  -0.000059
    32  H    0.000000   0.000000  -0.000000  -0.000011  -0.000104  -0.000060
    33  H    0.000000  -0.000000  -0.000000   0.000007   0.000044  -0.000499
    34  H    0.000003  -0.000041   0.003182   0.000227   0.004719  -0.000295
    35  H    0.000000  -0.000003  -0.000489  -0.000016   0.000004   0.000000
    36  H    0.000000  -0.000003  -0.000488  -0.000016   0.000004   0.000000
    37  H   -0.000001  -0.000004   0.000126   0.000007  -0.000000  -0.000000
               7          8          9         10         11         12
     1  C   -0.000000   0.000000   0.000000   0.000000  -0.000000  -0.000000
     2  O    0.000000  -0.000000   0.000000  -0.000000  -0.000000  -0.000000
     3  C   -0.000068   0.000002  -0.000000  -0.000000   0.000000   0.000000
     4  C    0.007466  -0.000186   0.000000  -0.000000   0.000000  -0.000000
     5  C   -0.008658   0.004915  -0.000127   0.000004  -0.000000  -0.000004
     6  C    0.499198  -0.052547   0.004841  -0.000156  -0.000012   0.000229
     7  C    4.841963   0.309122  -0.077115   0.005637  -0.000627   0.007274
     8  C    0.309122   4.945385   0.411222  -0.040165  -0.040018  -0.021542
     9  N   -0.077115   0.411222   6.962654   0.427111  -0.024860  -0.038518
    10  C    0.005637  -0.040165   0.427111   4.776980   0.487752  -0.000619
    11  C   -0.000627  -0.040018  -0.024860   0.487752   5.138683   0.418449
    12  C    0.007274  -0.021542  -0.038518  -0.000619   0.418449   4.777049
    13  N   -0.000119   0.010545   0.000209   0.004306  -0.075278   0.419762
    14  S   -0.000471   0.009119  -0.000260  -0.000304   0.010178  -0.092492
    15  N   -0.007213  -0.066195   0.004645  -0.000439   0.010776  -0.095822
    16  C   -0.066791   0.264139  -0.068044  -0.039334  -0.034107   0.361504
    17  N    0.320018  -0.031561  -0.006247   0.000075   0.000014  -0.000088
    18  C   -0.021488  -0.012809  -0.038763   0.000309  -0.000086   0.000013
    19  C   -0.072967   0.005814  -0.000040   0.000003   0.000000   0.000002
    20  C    0.001375  -0.000304  -0.000003  -0.000000   0.000000   0.000000
    21  C    0.000087   0.000000  -0.000000   0.000000  -0.000000   0.000000
    22  O    0.000000  -0.000000   0.000000   0.000000  -0.000000  -0.000000
    23  C    0.000000   0.000000  -0.000000  -0.000000  -0.000000  -0.000000
    24  H    0.000000   0.000000  -0.000000  -0.000000   0.000000  -0.000000
    25  H    0.000000   0.000000  -0.000000   0.000000   0.000000  -0.000000
    26  H    0.000000   0.000000  -0.000000   0.000000   0.000000  -0.000000
    27  H   -0.000099   0.000001   0.000000  -0.000000   0.000000   0.000000
    28  H   -0.031262  -0.009280  -0.000082   0.000005  -0.000010   0.000493
    29  H   -0.000177   0.004956  -0.056470   0.377195  -0.061323   0.003094
    30  H    0.000019   0.000308   0.003852  -0.035147   0.345437  -0.029933
    31  H    0.000603   0.000517   0.000784  -0.000010   0.000001  -0.000000
    32  H    0.000606   0.000518   0.000782  -0.000010   0.000001  -0.000000
    33  H   -0.008223   0.001037   0.043165  -0.000015   0.000276   0.000001
    34  H   -0.000039   0.000010   0.000001  -0.000000   0.000000  -0.000000
    35  H    0.000000   0.000000  -0.000000  -0.000000   0.000000   0.000000
    36  H    0.000000   0.000000  -0.000000  -0.000000   0.000000   0.000000
    37  H    0.000000   0.000000  -0.000000  -0.000000  -0.000000  -0.000000
              13         14         15         16         17         18
     1  C   -0.000000  -0.000000  -0.000000  -0.000000  -0.000000   0.000000
     2  O    0.000000   0.000000   0.000000  -0.000000  -0.000000  -0.000000
     3  C   -0.000000  -0.000000  -0.000000   0.000000  -0.000452   0.000019
     4  C   -0.000000  -0.000000  -0.000011   0.000000   0.014426  -0.000194
     5  C   -0.000000  -0.000004   0.000333   0.000462  -0.015294   0.005547
     6  C    0.000007   0.000569  -0.018034  -0.024647  -0.128289   0.007888
     7  C   -0.000119  -0.000471  -0.007213  -0.066791   0.320018  -0.021488
     8  C    0.010545   0.009119  -0.066195   0.264139  -0.031561  -0.012809
     9  N    0.000209  -0.000260   0.004645  -0.068044  -0.006247  -0.038763
    10  C    0.004306  -0.000304  -0.000439  -0.039334   0.000075   0.000309
    11  C   -0.075278   0.010178   0.010776  -0.034107   0.000014  -0.000086
    12  C    0.419762  -0.092492  -0.095822   0.361504  -0.000088   0.000013
    13  N    7.114434   0.238922  -0.067047  -0.077881  -0.000000   0.000000
    14  S    0.238922  15.116142   0.237738  -0.084254   0.000009  -0.000000
    15  N   -0.067047   0.237738   7.174498   0.393610   0.000049   0.000001
    16  C   -0.077881  -0.084254   0.393610   5.134270   0.005892  -0.000681
    17  N   -0.000000   0.000009   0.000049   0.005892   7.061834   0.293531
    18  C    0.000000  -0.000000   0.000001  -0.000681   0.293531   5.079623
    19  C    0.000000  -0.000000   0.000002  -0.000048   0.289360  -0.050365
    20  C    0.000000  -0.000000   0.000000   0.000001  -0.090891  -0.004927
    21  C   -0.000000   0.000000   0.000000  -0.000000   0.003877  -0.000097
    22  O    0.000000   0.000000  -0.000000   0.000000  -0.000017   0.000001
    23  C    0.000000  -0.000000   0.000000  -0.000000  -0.000005  -0.000012
    24  H   -0.000000   0.000000  -0.000000   0.000000  -0.000000   0.000000
    25  H   -0.000000   0.000000  -0.000000  -0.000000   0.000000   0.000000
    26  H   -0.000000   0.000000  -0.000000  -0.000000   0.000000   0.000000
    27  H   -0.000000   0.000000  -0.000004  -0.000000  -0.000110   0.000003
    28  H    0.000027   0.000133   0.019748   0.001856   0.003753  -0.000083
    29  H   -0.000104   0.000009   0.000008   0.000708  -0.000008   0.000308
    30  H   -0.003181  -0.000380  -0.000060   0.005416  -0.000000   0.000001
    31  H    0.000000   0.000000  -0.000000   0.000014  -0.043059   0.366462
    32  H    0.000000   0.000000  -0.000000   0.000014  -0.043050   0.366508
    33  H    0.000000   0.000001  -0.000005   0.000658  -0.026038   0.351429
    34  H   -0.000000   0.000000  -0.000000   0.000000  -0.008519   0.006222
    35  H   -0.000000   0.000000  -0.000000  -0.000000  -0.000001  -0.000004
    36  H   -0.000000   0.000000  -0.000000  -0.000000  -0.000001  -0.000004
    37  H    0.000000   0.000000  -0.000000  -0.000000  -0.000000   0.000000
              19         20         21         22         23         24
     1  C    0.000015  -0.000104   0.005519   0.000035   0.000002   0.386595
     2  O    0.000009   0.003786  -0.055016  -0.001158   0.000039  -0.034505
     3  C   -0.036077  -0.060228   0.454163  -0.054136   0.005432   0.003496
     4  C   -0.039226  -0.070138  -0.057019   0.003583  -0.000101   0.000022
     5  C    0.476154  -0.065433  -0.027513   0.000093   0.000011   0.000002
     6  C   -0.043186   0.020380  -0.000394  -0.000000  -0.000000   0.000000
     7  C   -0.072967   0.001375   0.000087   0.000000   0.000000   0.000000
     8  C    0.005814  -0.000304   0.000000  -0.000000   0.000000   0.000000
     9  N   -0.000040  -0.000003  -0.000000   0.000000  -0.000000  -0.000000
    10  C    0.000003  -0.000000   0.000000   0.000000  -0.000000  -0.000000
    11  C    0.000000   0.000000  -0.000000  -0.000000  -0.000000   0.000000
    12  C    0.000002   0.000000   0.000000  -0.000000  -0.000000  -0.000000
    13  N    0.000000   0.000000  -0.000000   0.000000   0.000000  -0.000000
    14  S   -0.000000  -0.000000   0.000000   0.000000  -0.000000   0.000000
    15  N    0.000002   0.000000   0.000000  -0.000000   0.000000  -0.000000
    16  C   -0.000048   0.000001  -0.000000   0.000000  -0.000000   0.000000
    17  N    0.289360  -0.090891   0.003877  -0.000017  -0.000005  -0.000000
    18  C   -0.050365  -0.004927  -0.000097   0.000001  -0.000012   0.000000
    19  C    4.710728   0.409837   0.019085   0.002791   0.000630  -0.000001
    20  C    0.409837   5.365670   0.465265  -0.060474  -0.008064   0.000008
    21  C    0.019085   0.465265   4.667030   0.282621  -0.044939   0.000137
    22  O    0.002791  -0.060474   0.282621   8.183776   0.251196  -0.000005
    23  C    0.000630  -0.008064  -0.044939   0.251196   4.891329  -0.000001
    24  H   -0.000001   0.000008   0.000137  -0.000005  -0.000001   0.541208
    25  H    0.000006  -0.000019  -0.000491  -0.000002   0.000000  -0.032087
    26  H    0.000006  -0.000019  -0.000490  -0.000002   0.000000  -0.032068
    27  H    0.005286   0.000246   0.003473  -0.000043   0.000003  -0.000127
    28  H    0.006026  -0.000103   0.000000  -0.000000   0.000000   0.000000
    29  H   -0.000000  -0.000000   0.000000   0.000000   0.000000   0.000000
    30  H    0.000000  -0.000000   0.000000  -0.000000   0.000000  -0.000000
    31  H   -0.002838   0.003000   0.000045  -0.000000  -0.000005   0.000000
    32  H   -0.002839   0.002994   0.000045  -0.000000  -0.000005   0.000000
    33  H    0.002261   0.000138   0.000001  -0.000000  -0.000000  -0.000000
    34  H   -0.028427   0.342358  -0.045867  -0.007566   0.006778  -0.000000
    35  H   -0.000102   0.006467  -0.006598  -0.035177   0.361182   0.000000
    36  H   -0.000104   0.006488  -0.006598  -0.035176   0.361164   0.000000
    37  H    0.000001   0.000062   0.003463  -0.034230   0.387047   0.000000
              25         26         27         28         29         30
     1  C    0.361212   0.361197   0.006507   0.000000   0.000000  -0.000000
     2  O   -0.035829  -0.035826  -0.007709  -0.000000   0.000000  -0.000000
     3  C   -0.006333  -0.006331  -0.049932  -0.000043  -0.000000  -0.000000
     4  C    0.006738   0.006752   0.350263  -0.004920   0.000000  -0.000000
     5  C   -0.000139  -0.000139  -0.032262  -0.032923   0.000000   0.000000
     6  C   -0.000008  -0.000008  -0.005866   0.348926   0.000002  -0.000000
     7  C    0.000000   0.000000  -0.000099  -0.031262  -0.000177   0.000019
     8  C    0.000000   0.000000   0.000001  -0.009280   0.004956   0.000308
     9  N   -0.000000  -0.000000   0.000000  -0.000082  -0.056470   0.003852
    10  C    0.000000   0.000000  -0.000000   0.000005   0.377195  -0.035147
    11  C    0.000000   0.000000   0.000000  -0.000010  -0.061323   0.345437
    12  C   -0.000000  -0.000000   0.000000   0.000493   0.003094  -0.029933
    13  N   -0.000000  -0.000000  -0.000000   0.000027  -0.000104  -0.003181
    14  S    0.000000   0.000000   0.000000   0.000133   0.000009  -0.000380
    15  N   -0.000000  -0.000000  -0.000004   0.019748   0.000008  -0.000060
    16  C   -0.000000  -0.000000  -0.000000   0.001856   0.000708   0.005416
    17  N    0.000000   0.000000  -0.000110   0.003753  -0.000008  -0.000000
    18  C    0.000000   0.000000   0.000003  -0.000083   0.000308   0.000001
    19  C    0.000006   0.000006   0.005286   0.006026  -0.000000   0.000000
    20  C   -0.000019  -0.000019   0.000246  -0.000103  -0.000000  -0.000000
    21  C   -0.000491  -0.000490   0.003473   0.000000   0.000000   0.000000
    22  O   -0.000002  -0.000002  -0.000043  -0.000000   0.000000  -0.000000
    23  C    0.000000   0.000000   0.000003   0.000000   0.000000   0.000000
    24  H   -0.032087  -0.032068  -0.000127   0.000000   0.000000  -0.000000
    25  H    0.610595  -0.052932   0.001957  -0.000000  -0.000000   0.000000
    26  H   -0.052932   0.610569   0.001954  -0.000000  -0.000000   0.000000
    27  H    0.001957   0.001954   0.587244   0.002123   0.000000  -0.000000
    28  H   -0.000000  -0.000000   0.002123   0.518201   0.000000   0.000000
    29  H   -0.000000  -0.000000   0.000000   0.000000   0.589960  -0.002201
    30  H    0.000000   0.000000  -0.000000   0.000000  -0.002201   0.563914
    31  H   -0.000000   0.000000   0.000000   0.000003  -0.000006  -0.000000
    32  H    0.000000  -0.000000   0.000000   0.000003  -0.000006  -0.000000
    33  H    0.000000   0.000000  -0.000000  -0.000010  -0.000593  -0.000004
    34  H   -0.000000  -0.000000   0.000016   0.000003  -0.000000  -0.000000
    35  H   -0.000000   0.000000  -0.000000  -0.000000  -0.000000  -0.000000
    36  H    0.000000  -0.000000  -0.000000  -0.000000  -0.000000  -0.000000
    37  H    0.000000   0.000000  -0.000000   0.000000   0.000000   0.000000
              31         32         33         34         35         36
     1  C    0.000000   0.000000   0.000000   0.000003   0.000000   0.000000
     2  O    0.000000   0.000000  -0.000000  -0.000041  -0.000003  -0.000003
     3  C   -0.000000  -0.000000  -0.000000   0.003182  -0.000489  -0.000488
     4  C   -0.000011  -0.000011   0.000007   0.000227  -0.000016  -0.000016
     5  C   -0.000104  -0.000104   0.000044   0.004719   0.000004   0.000004
     6  C   -0.000059  -0.000060  -0.000499  -0.000295   0.000000   0.000000
     7  C    0.000603   0.000606  -0.008223  -0.000039   0.000000   0.000000
     8  C    0.000517   0.000518   0.001037   0.000010   0.000000   0.000000
     9  N    0.000784   0.000782   0.043165   0.000001  -0.000000  -0.000000
    10  C   -0.000010  -0.000010  -0.000015  -0.000000  -0.000000  -0.000000
    11  C    0.000001   0.000001   0.000276   0.000000   0.000000   0.000000
    12  C   -0.000000  -0.000000   0.000001  -0.000000   0.000000   0.000000
    13  N    0.000000   0.000000   0.000000  -0.000000  -0.000000  -0.000000
    14  S    0.000000   0.000000   0.000001   0.000000   0.000000   0.000000
    15  N   -0.000000  -0.000000  -0.000005  -0.000000  -0.000000  -0.000000
    16  C    0.000014   0.000014   0.000658   0.000000  -0.000000  -0.000000
    17  N   -0.043059  -0.043050  -0.026038  -0.008519  -0.000001  -0.000001
    18  C    0.366462   0.366508   0.351429   0.006222  -0.000004  -0.000004
    19  C   -0.002838  -0.002839   0.002261  -0.028427  -0.000102  -0.000104
    20  C    0.003000   0.002994   0.000138   0.342358   0.006467   0.006488
    21  C    0.000045   0.000045   0.000001  -0.045867  -0.006598  -0.006598
    22  O   -0.000000  -0.000000  -0.000000  -0.007566  -0.035177  -0.035176
    23  C   -0.000005  -0.000005  -0.000000   0.006778   0.361182   0.361164
    24  H    0.000000   0.000000  -0.000000  -0.000000   0.000000   0.000000
    25  H   -0.000000   0.000000   0.000000  -0.000000  -0.000000   0.000000
    26  H    0.000000  -0.000000   0.000000  -0.000000   0.000000  -0.000000
    27  H    0.000000   0.000000  -0.000000   0.000016  -0.000000  -0.000000
    28  H    0.000003   0.000003  -0.000010   0.000003  -0.000000  -0.000000
    29  H   -0.000006  -0.000006  -0.000593  -0.000000  -0.000000  -0.000000
    30  H   -0.000000  -0.000000  -0.000004  -0.000000  -0.000000  -0.000000
    31  H    0.585798  -0.047305  -0.018940   0.001300  -0.000015   0.000037
    32  H   -0.047305   0.585732  -0.018946   0.001300   0.000036  -0.000015
    33  H   -0.018940  -0.018946   0.449258  -0.000071  -0.000000  -0.000000
    34  H    0.001300   0.001300  -0.000071   0.583082   0.002062   0.002057
    35  H   -0.000015   0.000036  -0.000000   0.002062   0.607903  -0.052206
    36  H    0.000037  -0.000015  -0.000000   0.002057  -0.052206   0.607866
    37  H   -0.000000  -0.000000   0.000000  -0.000152  -0.031775  -0.031745
              37
     1  C   -0.000001
     2  O   -0.000004
     3  C    0.000126
     4  C    0.000007
     5  C   -0.000000
     6  C   -0.000000
     7  C    0.000000
     8  C    0.000000
     9  N   -0.000000
    10  C   -0.000000
    11  C   -0.000000
    12  C   -0.000000
    13  N    0.000000
    14  S    0.000000
    15  N   -0.000000
    16  C   -0.000000
    17  N   -0.000000
    18  C    0.000000
    19  C    0.000001
    20  C    0.000062
    21  C    0.003463
    22  O   -0.034230
    23  C    0.387047
    24  H    0.000000
    25  H    0.000000
    26  H    0.000000
    27  H   -0.000000
    28  H    0.000000
    29  H    0.000000
    30  H    0.000000
    31  H   -0.000000
    32  H   -0.000000
    33  H    0.000000
    34  H   -0.000152
    35  H   -0.031775
    36  H   -0.031745
    37  H    0.536131
 Mulliken charges:
               1
     1  C   -0.209585
     2  O   -0.504112
     3  C    0.336879
     4  C   -0.290861
     5  C    0.111107
     6  C   -0.275427
     7  C    0.301947
     8  C    0.306997
     9  N   -0.548739
    10  C    0.036823
    11  C   -0.175247
    12  C    0.291148
    13  N   -0.564601
    14  S    0.565348
    15  N   -0.586579
    16  C    0.227241
    17  N   -0.599208
    18  C   -0.348350
    19  C    0.348202
    20  C   -0.267369
    21  C    0.340211
    22  O   -0.496106
    23  C   -0.211681
    24  H    0.167325
    25  H    0.147330
    26  H    0.147338
    27  H    0.137076
    28  H    0.177417
    29  H    0.144649
    30  H    0.151959
    31  H    0.153789
    32  H    0.153814
    33  H    0.225068
    34  H    0.137659
    35  H    0.148731
    36  H    0.148741
    37  H    0.171069
 Sum of Mulliken charges =  -0.00000
 Mulliken charges with hydrogens summed into heavy atoms:
               1
     1  C    0.252408
     2  O   -0.504112
     3  C    0.336879
     4  C   -0.153785
     5  C    0.111107
     6  C   -0.098010
     7  C    0.301947
     8  C    0.306997
     9  N   -0.548739
    10  C    0.181471
    11  C   -0.023288
    12  C    0.291148
    13  N   -0.564601
    14  S    0.565348
    15  N   -0.586579
    16  C    0.227241
    17  N   -0.599208
    18  C    0.184321
    19  C    0.348202
    20  C   -0.129710
    21  C    0.340211
    22  O   -0.496106
    23  C    0.256859
 Electronic spatial extent (au):  <R**2>=          10855.2001
 Charge=             -0.0000 electrons
 Dipole moment (field-independent basis, Debye):
    X=              0.7109    Y=             -1.2199    Z=             -0.5891  Tot=              1.5298
 Quadrupole moment (field-independent basis, Debye-Ang):
   XX=           -139.0257   YY=           -124.1572   ZZ=           -135.9925
   XY=              4.3334   XZ=              2.5309   YZ=              9.2301
 Traceless Quadrupole moment (field-independent basis, Debye-Ang):
   XX=             -5.9672   YY=              8.9012   ZZ=             -2.9340
   XY=              4.3334   XZ=              2.5309   YZ=              9.2301
 Octapole moment (field-independent basis, Debye-Ang**2):
  XXX=            313.1098  YYY=           -189.5040  ZZZ=           -107.5414  XYY=            140.3676
  XXY=            -95.4621  XXZ=            -52.9418  XZZ=            109.8761  YZZ=            -58.6162
  YYZ=            -31.1676  XYZ=             18.6506
 Hexadecapole moment (field-independent basis, Debye-Ang**3):
 XXXX=         -11027.1739 YYYY=          -2589.9855 ZZZZ=           -792.5229 XXXY=           1483.8480
 XXXZ=            379.3566 YYYX=           1058.8852 YYYZ=           -526.6799 ZZZX=            188.9329
 ZZZY=           -592.2772 XXYY=          -2124.2286 XXZZ=          -1911.2437 YYZZ=           -549.2758
 XXYZ=            -74.1776 YYXZ=             39.3935 ZZXY=            379.2586
 N-N= 1.934741418247D+03 E-N=-7.111593779042D+03  KE= 1.375008683126D+03
 No NMR shielding tensors so no spin-rotation constants.
 Leave Link  601 at Mon Jun  3 12:28:20 2024, MaxMem=   104857600 cpu:               1.2 elap:               0.7
 (Enter /software/spackages_v0_21_prod/apps/linux-ubuntu22.04-zen2/gcc-13.2.0/gaussian_sse4-16-C-g6jkfwqig4o4stofyyxv7ma3rrfxhpfk/g16/l9999.exe)
 Unable to Open any file for archive entry.
 1\1\GINC-ERC-HPC-COMP026\SP\RB3LYP\6-31G(d)\C16H14N4O2S1\K2255489\03-J
 un-2024\0\\#p B3LYP/6-31G* SP, Geom=Checkpoint, nosymm\\b_18_v2 n_a_ge
 o Smile String: COc1cc2cc(-c3nccc4nsnc34)n(C)c2cc1OC\\0,1\C,0,4.602803
 672,2.0803698131,1.5589912226\O,0,4.4460557176,0.849691873,0.892912797
 8\C,0,3.1563201086,0.462598517,0.5822603054\C,0,2.0174572957,1.2003190
 272,0.8817123683\C,0,0.747238308,0.7066070208,0.5159529799\C,0,-0.5853
 82833,1.1790366801,0.6588232903\C,0,-1.4500810158,0.2443339509,0.09165
 63128\C,0,-2.9053798221,0.3195009569,0.0133508487\N,0,-3.5863846871,-0
 .6970142124,-0.5838767418\C,0,-4.9215765033,-0.6508026507,-0.667828737
 1\C,0,-5.7266863358,0.3733290238,-0.1874294017\C,0,-5.0834850612,1.462
 9922511,0.4456621545\N,0,-5.6837056359,2.5396363809,0.9707747467\S,0,-
 4.4320684301,3.5003199888,1.5845462954\N,0,-3.1146659301,2.5245116288,
 1.1713985153\C,0,-3.6253642793,1.4452773654,0.5547574265\N,0,-0.658180
 9285,-0.8177151838,-0.4087489808\C,0,-1.0544625586,-2.0378491866,-1.08
 87540684\C,0,0.6674133312,-0.5397700944,-0.1531216295\C,0,1.8082823489
 ,-1.2937073806,-0.4608993768\C,0,3.053254665,-0.7876156981,-0.09053932
 11\O,0,4.2538755357,-1.4255249,-0.3317952819\C,0,4.2024427474,-2.66625
 20736,-0.994059237\H,0,5.6780755145,2.2080599037,1.7139258287\H,0,4.09
 48742506,2.0893826481,2.5351365264\H,0,4.2222136607,2.9238140245,0.963
 4407744\H,0,2.0934517599,2.1530583271,1.3944017805\H,0,-0.9186382572,2
 .0952138408,1.1187654728\H,0,-5.3845489019,-1.50781569,-1.1622743342\H
 ,0,-6.8075572228,0.3493854339,-0.2880804361\H,0,-0.7216658042,-2.91725
 60142,-0.5181683145\H,0,-0.5944010944,-2.084367342,-2.0866805067\H,0,-
 2.1395587868,-2.0363729232,-1.1761702896\H,0,1.7226031311,-2.244481170
 1,-0.9731799317\H,0,3.7589325051,-2.5810510029,-1.9978981976\H,0,3.630
 3664038,-3.4151059367,-0.4252147851\H,0,5.2381531323,-3.0047171964,-1.
 0889300753\\Version=ES64L-G16RevC.01\HF=-1385.7259423\RMSD=6.543e-09\D
 ipole=0.2796798,-0.4799278,-0.2317706\Quadrupole=-4.4364646,6.6178426,
 -2.1813781,3.221812,1.8816632,6.8623462\PG=C01 [X(C16H14N4O2S1)]\\@
 The archive entry for this job was punched.


 YOU ARE IN A MAZE OF TWISTY LITTLE PASSAGES.
 Job cpu time:       0 days  0 hours  7 minutes 22.6 seconds.
 Elapsed time:       0 days  0 hours  3 minutes 41.9 seconds.
 File lengths (MBytes):  RWF=    136 Int=      0 D2E=      0 Chk=    268 Scr=      8
 Normal termination of Gaussian 16 at Mon Jun  3 12:28:20 2024.
