 Entering Gaussian System, Link 0=g16
 Input=b_opt.com
 Output=b_opt.log
 Initial command:
 /software/spackages_v0_21_prod/apps/linux-ubuntu22.04-zen2/gcc-13.2.0/gaussian_sse4-16-C-g6jkfwqig4o4stofyyxv7ma3rrfxhpfk/g16/l1.exe "/scratch/prj/mime/TSJ_funnel_project/paper_fix_dimers/d_a_screening/b/Gau-1250819.inp" -scrdir="/scratch/prj/mime/TSJ_funnel_project/paper_fix_dimers/d_a_screening/b/"
 Entering Link 1 = /software/spackages_v0_21_prod/apps/linux-ubuntu22.04-zen2/gcc-13.2.0/gaussian_sse4-16-C-g6jkfwqig4o4stofyyxv7ma3rrfxhpfk/g16/l1.exe PID=   1250821.
  
 Copyright (c) 1988-2019, Gaussian, Inc.  All Rights Reserved.
  
 This is part of the Gaussian(R) 16 program.  It is based on
 the Gaussian(R) 09 system (copyright 2009, Gaussian, Inc.),
 the Gaussian(R) 03 system (copyright 2003, Gaussian, Inc.),
 the Gaussian(R) 98 system (copyright 1998, Gaussian, Inc.),
 the Gaussian(R) 94 system (copyright 1995, Gaussian, Inc.),
 the Gaussian 92(TM) system (copyright 1992, Gaussian, Inc.),
 the Gaussian 90(TM) system (copyright 1990, Gaussian, Inc.),
 the Gaussian 88(TM) system (copyright 1988, Gaussian, Inc.),
 the Gaussian 86(TM) system (copyright 1986, Carnegie Mellon
 University), and the Gaussian 82(TM) system (copyright 1983,
 Carnegie Mellon University). Gaussian is a federally registered
 trademark of Gaussian, Inc.
  
 This software contains proprietary and confidential information,
 including trade secrets, belonging to Gaussian, Inc.
  
 This software is provided under written license and may be
 used, copied, transmitted, or stored only in accord with that
 written license.
  
 The following legend is applicable only to US Government
 contracts under FAR:
  
                    RESTRICTED RIGHTS LEGEND
  
 Use, reproduction and disclosure by the US Government is
 subject to restrictions as set forth in subparagraphs (a)
 and (c) of the Commercial Computer Software - Restricted
 Rights clause in FAR 52.227-19.
  
 Gaussian, Inc.
 340 Quinnipiac St., Bldg. 40, Wallingford CT 06492
  
  
 ---------------------------------------------------------------
 Warning -- This program may not be used in any manner that
 competes with the business of Gaussian, Inc. or will provide
 assistance to any competitor of Gaussian, Inc.  The licensee
 of this program is prohibited from giving any competitor of
 Gaussian, Inc. access to this program.  By using this program,
 the user acknowledges that Gaussian, Inc. is engaged in the
 business of creating and licensing software in the field of
 computational chemistry and represents and warrants to the
 licensee that it is not a competitor of Gaussian, Inc. and that
 it will not use this program in any manner prohibited above.
 ---------------------------------------------------------------
  

 Cite this work as:
 Gaussian 16, Revision C.01,
 M. J. Frisch, G. W. Trucks, H. B. Schlegel, G. E. Scuseria, 
 M. A. Robb, J. R. Cheeseman, G. Scalmani, V. Barone, 
 G. A. Petersson, H. Nakatsuji, X. Li, M. Caricato, A. V. Marenich, 
 J. Bloino, B. G. Janesko, R. Gomperts, B. Mennucci, H. P. Hratchian, 
 J. V. Ortiz, A. F. Izmaylov, J. L. Sonnenberg, D. Williams-Young, 
 F. Ding, F. Lipparini, F. Egidi, J. Goings, B. Peng, A. Petrone, 
 T. Henderson, D. Ranasinghe, V. G. Zakrzewski, J. Gao, N. Rega, 
 G. Zheng, W. Liang, M. Hada, M. Ehara, K. Toyota, R. Fukuda, 
 J. Hasegawa, M. Ishida, T. Nakajima, Y. Honda, O. Kitao, H. Nakai, 
 T. Vreven, K. Throssell, J. A. Montgomery, Jr., J. E. Peralta, 
 F. Ogliaro, M. J. Bearpark, J. J. Heyd, E. N. Brothers, K. N. Kudin, 
 V. N. Staroverov, T. A. Keith, R. Kobayashi, J. Normand, 
 K. Raghavachari, A. P. Rendell, J. C. Burant, S. S. Iyengar, 
 J. Tomasi, M. Cossi, J. M. Millam, M. Klene, C. Adamo, R. Cammi, 
 J. W. Ochterski, R. L. Martin, K. Morokuma, O. Farkas, 
 J. B. Foresman, and D. J. Fox, Gaussian, Inc., Wallingford CT, 2019.
 
 ******************************************
 Gaussian 16:  ES64L-G16RevC.01  3-Jul-2019
                24-May-2024 
 ******************************************
 %NProc=4
 Will use up to    4 processors via shared memory.
 %Chk=b_opt.chk
 ---------------------------
 #p B3LYP/3-21G* opt, nosymm
 ---------------------------
 1/18=20,19=15,26=3,38=1/1,3;
 2/9=110,12=2,15=1,17=6,18=5,40=1/2;
 3/5=5,7=1,11=2,25=1,30=1,71=1,74=-5/1,2,3;
 4//1;
 5/5=2,38=5/2;
 6/7=2,8=2,9=2,10=2,28=1/1;
 7/30=1/1,2,3,16;
 1/18=20,19=15,26=3/3(2);
 2/9=110,15=1/2;
 99//99;
 2/9=110,15=1/2;
 3/5=5,7=1,11=2,25=1,30=1,71=1,74=-5/1,2,3;
 4/5=5,16=3,69=1/1;
 5/5=2,38=5/2;
 7/30=1/1,2,3,16;
 1/18=20,19=15,26=3/3(-5);
 2/9=110,15=1/2;
 6/7=2,8=2,9=2,10=2,19=2,28=1/1;
 99/9=1/99;
 Leave Link    1 at Fri May 24 13:58:53 2024, MaxMem=           0 cpu:               0.3 elap:               0.2
 (Enter /software/spackages_v0_21_prod/apps/linux-ubuntu22.04-zen2/gcc-13.2.0/gaussian_sse4-16-C-g6jkfwqig4o4stofyyxv7ma3rrfxhpfk/g16/l101.exe)
 ------------------------------------------------
 b opt Smile String: CN1C(C=C(C(OC)=C2)OC)=C2C=C1
 ------------------------------------------------
 Symbolic Z-matrix:
 Charge =  0 Multiplicity = 1
 C                     3.20645   1.31049   0.845 
 N                     2.51324   0.28528   0.09721 
 C                     1.14228   0.13199   0.04595 
 C                     0.10719   0.86416   0.65312 
 C                    -1.21771   0.46725   0.4141 
 C                    -1.49556  -0.63749  -0.41412 
 O                    -2.82668  -0.94176  -0.58228 
 C                    -3.14932  -2.04912  -1.41035 
 C                    -0.44619  -1.35357  -1.00972 
 O                    -2.31555   1.10161   0.94976 
 C                    -2.08644   2.22126   1.79167 
 C                     0.88884  -0.96491  -0.77746 
 C                     2.14583  -1.46332  -1.21718 
 C                     3.12732  -0.67424  -0.66302 
 H                     2.95431   1.19716   1.90244 
 H                     4.28506   1.19852   0.70817 
 H                     2.88596   2.28664   0.47214 
 H                     0.34942   1.7087    1.28484 
 H                    -4.23926  -2.14466  -1.43103 
 H                    -2.74284  -2.98019  -1.00193 
 H                    -2.81152  -1.88559  -2.43897 
 H                    -0.62333  -2.20735  -1.65159 
 H                    -3.05998   2.59528   2.12309 
 H                    -1.58857   3.03033   1.2472 
 H                    -1.51991   1.9358    2.68412 
 H                     2.31213  -2.30996  -1.87002 
 H                     4.20484  -0.72231  -0.75113 
 
 ITRead=  0  0  0  0  0  0  0  0  0  0  0  0  0  0  0  0  0  0  0  0
 ITRead=  0  0  0  0  0  0  0
 MicOpt= -1 -1 -1 -1 -1 -1 -1 -1 -1 -1 -1 -1 -1 -1 -1 -1 -1 -1 -1 -1
 MicOpt= -1 -1 -1 -1 -1 -1 -1
 NAtoms=     27 NQM=       27 NQMF=       0 NMMI=      0 NMMIF=      0
                NMic=       0 NMicF=      0.
                    Isotopes and Nuclear Properties:
 (Nuclear quadrupole moments (NQMom) in fm**2, nuclear magnetic moments (NMagM)
  in nuclear magnetons)

  Atom         1           2           3           4           5           6           7           8           9          10
 IAtWgt=          12          14          12          12          12          12          16          12          12          16
 AtmWgt=  12.0000000  14.0030740  12.0000000  12.0000000  12.0000000  12.0000000  15.9949146  12.0000000  12.0000000  15.9949146
 NucSpn=           0           2           0           0           0           0           0           0           0           0
 AtZEff=  -0.0000000  -0.0000000  -0.0000000  -0.0000000  -0.0000000  -0.0000000  -0.0000000  -0.0000000  -0.0000000  -0.0000000
 NQMom=    0.0000000   2.0440000   0.0000000   0.0000000   0.0000000   0.0000000   0.0000000   0.0000000   0.0000000   0.0000000
 NMagM=    0.0000000   0.4037610   0.0000000   0.0000000   0.0000000   0.0000000   0.0000000   0.0000000   0.0000000   0.0000000
 AtZNuc=   6.0000000   7.0000000   6.0000000   6.0000000   6.0000000   6.0000000   8.0000000   6.0000000   6.0000000   8.0000000

  Atom        11          12          13          14          15          16          17          18          19          20
 IAtWgt=          12          12          12          12           1           1           1           1           1           1
 AtmWgt=  12.0000000  12.0000000  12.0000000  12.0000000   1.0078250   1.0078250   1.0078250   1.0078250   1.0078250   1.0078250
 NucSpn=           0           0           0           0           1           1           1           1           1           1
 AtZEff=  -0.0000000  -0.0000000  -0.0000000  -0.0000000  -0.0000000  -0.0000000  -0.0000000  -0.0000000  -0.0000000  -0.0000000
 NQMom=    0.0000000   0.0000000   0.0000000   0.0000000   0.0000000   0.0000000   0.0000000   0.0000000   0.0000000   0.0000000
 NMagM=    0.0000000   0.0000000   0.0000000   0.0000000   2.7928460   2.7928460   2.7928460   2.7928460   2.7928460   2.7928460
 AtZNuc=   6.0000000   6.0000000   6.0000000   6.0000000   1.0000000   1.0000000   1.0000000   1.0000000   1.0000000   1.0000000

  Atom        21          22          23          24          25          26          27
 IAtWgt=           1           1           1           1           1           1           1
 AtmWgt=   1.0078250   1.0078250   1.0078250   1.0078250   1.0078250   1.0078250   1.0078250
 NucSpn=           1           1           1           1           1           1           1
 AtZEff=  -0.0000000  -0.0000000  -0.0000000  -0.0000000  -0.0000000  -0.0000000  -0.0000000
 NQMom=    0.0000000   0.0000000   0.0000000   0.0000000   0.0000000   0.0000000   0.0000000
 NMagM=    2.7928460   2.7928460   2.7928460   2.7928460   2.7928460   2.7928460   2.7928460
 AtZNuc=   1.0000000   1.0000000   1.0000000   1.0000000   1.0000000   1.0000000   1.0000000
 Leave Link  101 at Fri May 24 13:58:54 2024, MaxMem=   104857600 cpu:               0.8 elap:               0.4
 (Enter /software/spackages_v0_21_prod/apps/linux-ubuntu22.04-zen2/gcc-13.2.0/gaussian_sse4-16-C-g6jkfwqig4o4stofyyxv7ma3rrfxhpfk/g16/l103.exe)

 GradGradGradGradGradGradGradGradGradGradGradGradGradGradGradGradGradGrad
 Berny optimization.
 Initialization pass.
                           ----------------------------
                           !    Initial Parameters    !
                           ! (Angstroms and Degrees)  !
 --------------------------                            --------------------------
 ! Name  Definition              Value          Derivative Info.                !
 --------------------------------------------------------------------------------
 ! R1    R(1,2)                  1.446          estimate D2E/DX2                !
 ! R2    R(1,15)                 1.093          estimate D2E/DX2                !
 ! R3    R(1,16)                 1.093          estimate D2E/DX2                !
 ! R4    R(1,17)                 1.093          estimate D2E/DX2                !
 ! R5    R(2,3)                  1.3805         estimate D2E/DX2                !
 ! R6    R(2,14)                 1.3696         estimate D2E/DX2                !
 ! R7    R(3,4)                  1.4058         estimate D2E/DX2                !
 ! R8    R(3,12)                 1.3948         estimate D2E/DX2                !
 ! R9    R(4,5)                  1.4036         estimate D2E/DX2                !
 ! R10   R(4,18)                 1.0821         estimate D2E/DX2                !
 ! R11   R(5,6)                  1.4084         estimate D2E/DX2                !
 ! R12   R(5,10)                 1.3764         estimate D2E/DX2                !
 ! R13   R(6,7)                  1.3758         estimate D2E/DX2                !
 ! R14   R(6,9)                  1.4031         estimate D2E/DX2                !
 ! R15   R(7,8)                  1.4199         estimate D2E/DX2                !
 ! R16   R(8,19)                 1.0943         estimate D2E/DX2                !
 ! R17   R(8,20)                 1.095          estimate D2E/DX2                !
 ! R18   R(8,21)                 1.0949         estimate D2E/DX2                !
 ! R19   R(9,12)                 1.4097         estimate D2E/DX2                !
 ! R20   R(9,22)                 1.0827         estimate D2E/DX2                !
 ! R21   R(10,11)                1.4195         estimate D2E/DX2                !
 ! R22   R(11,23)                1.0943         estimate D2E/DX2                !
 ! R23   R(11,24)                1.095          estimate D2E/DX2                !
 ! R24   R(11,25)                1.0949         estimate D2E/DX2                !
 ! R25   R(12,13)                1.4219         estimate D2E/DX2                !
 ! R26   R(13,14)                1.3759         estimate D2E/DX2                !
 ! R27   R(13,26)                1.082          estimate D2E/DX2                !
 ! R28   R(14,27)                1.0822         estimate D2E/DX2                !
 ! A1    A(2,1,15)             108.4352         estimate D2E/DX2                !
 ! A2    A(2,1,16)             109.6166         estimate D2E/DX2                !
 ! A3    A(2,1,17)             108.4351         estimate D2E/DX2                !
 ! A4    A(15,1,16)            109.7641         estimate D2E/DX2                !
 ! A5    A(15,1,17)            110.7941         estimate D2E/DX2                !
 ! A6    A(16,1,17)            109.7642         estimate D2E/DX2                !
 ! A7    A(1,2,3)              125.0332         estimate D2E/DX2                !
 ! A8    A(1,2,14)             124.6701         estimate D2E/DX2                !
 ! A9    A(3,2,14)             110.2967         estimate D2E/DX2                !
 ! A10   A(2,3,4)              131.1008         estimate D2E/DX2                !
 ! A11   A(2,3,12)             106.8403         estimate D2E/DX2                !
 ! A12   A(4,3,12)             122.0589         estimate D2E/DX2                !
 ! A13   A(3,4,5)              118.3081         estimate D2E/DX2                !
 ! A14   A(3,4,18)             119.5911         estimate D2E/DX2                !
 ! A15   A(5,4,18)             122.1008         estimate D2E/DX2                !
 ! A16   A(4,5,6)              120.5425         estimate D2E/DX2                !
 ! A17   A(4,5,10)             123.7992         estimate D2E/DX2                !
 ! A18   A(6,5,10)             115.6582         estimate D2E/DX2                !
 ! A19   A(5,6,7)              115.8639         estimate D2E/DX2                !
 ! A20   A(5,6,9)              120.1587         estimate D2E/DX2                !
 ! A21   A(7,6,9)              123.9774         estimate D2E/DX2                !
 ! A22   A(6,7,8)              117.6214         estimate D2E/DX2                !
 ! A23   A(7,8,19)             107.7843         estimate D2E/DX2                !
 ! A24   A(7,8,20)             111.1789         estimate D2E/DX2                !
 ! A25   A(7,8,21)             111.1795         estimate D2E/DX2                !
 ! A26   A(19,8,20)            107.6112         estimate D2E/DX2                !
 ! A27   A(19,8,21)            107.6115         estimate D2E/DX2                !
 ! A28   A(20,8,21)            111.2769         estimate D2E/DX2                !
 ! A29   A(6,9,12)             119.8432         estimate D2E/DX2                !
 ! A30   A(6,9,22)             122.122          estimate D2E/DX2                !
 ! A31   A(12,9,22)            118.0348         estimate D2E/DX2                !
 ! A32   A(5,10,11)            117.7493         estimate D2E/DX2                !
 ! A33   A(10,11,23)           107.7961         estimate D2E/DX2                !
 ! A34   A(10,11,24)           111.1798         estimate D2E/DX2                !
 ! A35   A(10,11,25)           111.1798         estimate D2E/DX2                !
 ! A36   A(23,11,24)           107.6117         estimate D2E/DX2                !
 ! A37   A(23,11,25)           107.6115         estimate D2E/DX2                !
 ! A38   A(24,11,25)           111.2643         estimate D2E/DX2                !
 ! A39   A(3,12,9)             119.0886         estimate D2E/DX2                !
 ! A40   A(3,12,13)            107.3133         estimate D2E/DX2                !
 ! A41   A(9,12,13)            133.5982         estimate D2E/DX2                !
 ! A42   A(12,13,14)           107.7603         estimate D2E/DX2                !
 ! A43   A(12,13,26)           126.6379         estimate D2E/DX2                !
 ! A44   A(14,13,26)           125.6017         estimate D2E/DX2                !
 ! A45   A(2,14,13)            107.7895         estimate D2E/DX2                !
 ! A46   A(2,14,27)            121.5173         estimate D2E/DX2                !
 ! A47   A(13,14,27)           130.6932         estimate D2E/DX2                !
 ! D1    D(15,1,2,3)            60.185          estimate D2E/DX2                !
 ! D2    D(15,1,2,14)         -119.8157         estimate D2E/DX2                !
 ! D3    D(16,1,2,3)          -179.9997         estimate D2E/DX2                !
 ! D4    D(16,1,2,14)           -0.0003         estimate D2E/DX2                !
 ! D5    D(17,1,2,3)           -60.1842         estimate D2E/DX2                !
 ! D6    D(17,1,2,14)          119.8151         estimate D2E/DX2                !
 ! D7    D(1,2,3,4)             -0.0007         estimate D2E/DX2                !
 ! D8    D(1,2,3,12)           179.9999         estimate D2E/DX2                !
 ! D9    D(14,2,3,4)           179.9999         estimate D2E/DX2                !
 ! D10   D(14,2,3,12)            0.0005         estimate D2E/DX2                !
 ! D11   D(1,2,14,13)         -179.9996         estimate D2E/DX2                !
 ! D12   D(1,2,14,27)            0.0001         estimate D2E/DX2                !
 ! D13   D(3,2,14,13)           -0.0002         estimate D2E/DX2                !
 ! D14   D(3,2,14,27)          179.9995         estimate D2E/DX2                !
 ! D15   D(2,3,4,5)           -179.9995         estimate D2E/DX2                !
 ! D16   D(2,3,4,18)             0.0007         estimate D2E/DX2                !
 ! D17   D(12,3,4,5)            -0.0002         estimate D2E/DX2                !
 ! D18   D(12,3,4,18)         -180.0            estimate D2E/DX2                !
 ! D19   D(2,3,12,9)           180.0            estimate D2E/DX2                !
 ! D20   D(2,3,12,13)           -0.0006         estimate D2E/DX2                !
 ! D21   D(4,3,12,9)             0.0005         estimate D2E/DX2                !
 ! D22   D(4,3,12,13)          179.9999         estimate D2E/DX2                !
 ! D23   D(3,4,5,6)              0.0001         estimate D2E/DX2                !
 ! D24   D(3,4,5,10)          -179.9998         estimate D2E/DX2                !
 ! D25   D(18,4,5,6)           179.9998         estimate D2E/DX2                !
 ! D26   D(18,4,5,10)            0.0            estimate D2E/DX2                !
 ! D27   D(4,5,6,7)           -179.9999         estimate D2E/DX2                !
 ! D28   D(4,5,6,9)             -0.0002         estimate D2E/DX2                !
 ! D29   D(10,5,6,7)             0.0            estimate D2E/DX2                !
 ! D30   D(10,5,6,9)           179.9997         estimate D2E/DX2                !
 ! D31   D(4,5,10,11)           -0.0003         estimate D2E/DX2                !
 ! D32   D(6,5,10,11)          179.9999         estimate D2E/DX2                !
 ! D33   D(5,6,7,8)           -179.9998         estimate D2E/DX2                !
 ! D34   D(9,6,7,8)              0.0005         estimate D2E/DX2                !
 ! D35   D(5,6,9,12)             0.0005         estimate D2E/DX2                !
 ! D36   D(5,6,9,22)           179.9999         estimate D2E/DX2                !
 ! D37   D(7,6,9,12)          -179.9998         estimate D2E/DX2                !
 ! D38   D(7,6,9,22)            -0.0004         estimate D2E/DX2                !
 ! D39   D(6,7,8,19)           179.9994         estimate D2E/DX2                !
 ! D40   D(6,7,8,20)            62.2869         estimate D2E/DX2                !
 ! D41   D(6,7,8,21)           -62.2874         estimate D2E/DX2                !
 ! D42   D(6,9,12,3)            -0.0007         estimate D2E/DX2                !
 ! D43   D(6,9,12,13)         -179.9998         estimate D2E/DX2                !
 ! D44   D(22,9,12,3)          179.9999         estimate D2E/DX2                !
 ! D45   D(22,9,12,13)           0.0008         estimate D2E/DX2                !
 ! D46   D(5,10,11,23)        -179.9998         estimate D2E/DX2                !
 ! D47   D(5,10,11,24)          62.2795         estimate D2E/DX2                !
 ! D48   D(5,10,11,25)         -62.2793         estimate D2E/DX2                !
 ! D49   D(3,12,13,14)           0.0005         estimate D2E/DX2                !
 ! D50   D(3,12,13,26)         179.9998         estimate D2E/DX2                !
 ! D51   D(9,12,13,14)         179.9998         estimate D2E/DX2                !
 ! D52   D(9,12,13,26)          -0.001          estimate D2E/DX2                !
 ! D53   D(12,13,14,2)          -0.0002         estimate D2E/DX2                !
 ! D54   D(12,13,14,27)       -179.9999         estimate D2E/DX2                !
 ! D55   D(26,13,14,2)        -179.9995         estimate D2E/DX2                !
 ! D56   D(26,13,14,27)          0.0009         estimate D2E/DX2                !
 --------------------------------------------------------------------------------
 Trust Radius=3.00D-01 FncErr=1.00D-07 GrdErr=1.00D-06 EigMax=2.50D+02 EigMin=1.00D-04
 Number of steps in this run=    141 maximum allowed number of steps=    162.
 GradGradGradGradGradGradGradGradGradGradGradGradGradGradGradGradGradGrad

 Leave Link  103 at Fri May 24 13:58:54 2024, MaxMem=   104857600 cpu:               0.1 elap:               0.1
 (Enter /software/spackages_v0_21_prod/apps/linux-ubuntu22.04-zen2/gcc-13.2.0/gaussian_sse4-16-C-g6jkfwqig4o4stofyyxv7ma3rrfxhpfk/g16/l202.exe)
                          Input orientation:                          
 ---------------------------------------------------------------------
 Center     Atomic      Atomic             Coordinates (Angstroms)
 Number     Number       Type             X           Y           Z
 ---------------------------------------------------------------------
      1          6           0        3.206450    1.310490    0.845000
      2          7           0        2.513240    0.285280    0.097210
      3          6           0        1.142280    0.131990    0.045950
      4          6           0        0.107190    0.864160    0.653120
      5          6           0       -1.217710    0.467250    0.414100
      6          6           0       -1.495560   -0.637490   -0.414120
      7          8           0       -2.826680   -0.941760   -0.582280
      8          6           0       -3.149320   -2.049120   -1.410350
      9          6           0       -0.446190   -1.353570   -1.009720
     10          8           0       -2.315550    1.101610    0.949760
     11          6           0       -2.086440    2.221260    1.791670
     12          6           0        0.888840   -0.964910   -0.777460
     13          6           0        2.145830   -1.463320   -1.217180
     14          6           0        3.127320   -0.674240   -0.663020
     15          1           0        2.954310    1.197160    1.902440
     16          1           0        4.285060    1.198520    0.708170
     17          1           0        2.885960    2.286640    0.472140
     18          1           0        0.349420    1.708700    1.284840
     19          1           0       -4.239260   -2.144660   -1.431030
     20          1           0       -2.742840   -2.980190   -1.001930
     21          1           0       -2.811520   -1.885590   -2.438970
     22          1           0       -0.623330   -2.207350   -1.651590
     23          1           0       -3.059980    2.595280    2.123090
     24          1           0       -1.588570    3.030330    1.247200
     25          1           0       -1.519910    1.935800    2.684120
     26          1           0        2.312130   -2.309960   -1.870020
     27          1           0        4.204840   -0.722310   -0.751130
 ---------------------------------------------------------------------
                    Distance matrix (angstroms):
                    1          2          3          4          5
     1  C    0.000000
     2  N    1.445955   0.000000
     3  C    2.507617   1.380455   0.000000
     4  C    3.137107   2.536378   1.405752   0.000000
     5  C    4.524370   3.748803   2.411947   1.403577   0.000000
     6  C    5.242986   4.145291   2.786030   2.441877   1.408403
     7  O    6.596091   5.521058   4.159358   3.659939   2.359421
     8  C    7.534547   6.307674   5.029501   4.832180   3.659488
     9  C    4.886612   3.559403   2.417553   2.826587   2.436779
    10  O    5.526942   4.970961   3.703191   2.452355   1.376444
    11  C    5.453473   5.270320   4.223413   2.819580   2.393521
    12  C    3.630584   2.228609   1.394785   2.450109   2.812197
    13  C    3.615456   2.218155   2.268838   3.615417   4.207324
    14  C    2.493900   1.369570   2.256774   3.635943   4.619791
    15  H    1.092976   2.070006   2.804389   3.126944   4.489285
    16  H    1.093005   2.084856   3.384241   4.191590   5.558931
    17  H    1.092981   2.070008   2.804385   3.126942   4.489282
    18  H    2.917987   2.849334   2.156268   1.082124   2.180661
    19  H    8.518038   7.337328   6.027070   5.682280   4.399584
    20  H    7.564069   6.284726   5.087030   5.063683   4.026910
    21  H    7.564083   6.284740   5.087041   5.063696   4.026921
    22  H    5.768481   4.371450   3.386965   3.908903   3.431304
    23  H    6.523216   6.364045   5.295403   3.897250   3.292889
    24  H    5.109974   5.067802   4.159437   2.814396   2.720473
    25  H    5.109976   5.067802   4.159438   2.814397   2.720470
    26  H    4.612895   3.262776   3.317018   4.615521   5.038836
    27  H    2.770684   2.143928   3.277871   4.612975   5.672465
                    6          7          8          9         10
     6  C    0.000000
     7  O    1.375768   0.000000
     8  C    2.391672   1.419874   0.000000
     9  C    1.403099   2.453370   2.819788   0.000000
    10  O    2.357333   2.604565   4.023977   3.655404   0.000000
    11  C    3.658839   4.023467   5.442315   4.828832   1.419479
    12  C    2.434047   3.720715   4.228806   1.409719   4.185918
    13  C    3.819244   5.039938   5.330956   2.602624   5.583763
    14  C    4.629722   5.960554   6.468772   3.653993   5.948070
    15  H    5.341698   6.645950   7.665977   5.152698   5.356132
    16  H    6.168147   7.538097   8.384825   5.643495   6.605741
    17  H    5.341695   6.645948   7.665976   5.152695   5.356130
    18  H    3.434388   4.538578   5.798831   3.908388   2.753707
    19  H    3.291437   2.040276   1.094315   3.897526   4.461736
    20  H    2.718358   2.082866   1.094954   2.814348   4.544531
    21  H    2.718367   2.082869   1.094947   2.814354   4.544540
    22  H    2.180958   2.756790   2.542412   1.082735   4.536502
    23  H    4.397232   4.459160   5.836406   5.678011   2.040081
    24  H    4.027597   4.545043   5.941323   5.061353   2.082530
    25  H    4.027593   4.545038   5.941317   5.061352   2.082527
    26  H    4.406280   5.471528   5.486964   3.043539   6.403545
    27  H    5.710983   7.036970   7.501911   4.700791   6.981060
                   11         12         13         14         15
    11  C    0.000000
    12  C    5.060079   0.000000
    13  C    6.367214   1.421897   0.000000
    14  C    6.449242   2.260172   1.375886   0.000000
    15  H    5.144921   4.015293   4.178974   3.180197   0.000000
    16  H    6.543392   4.292067   3.920290   2.593791   1.788066
    17  H    5.144919   4.015292   4.178971   3.180197   1.799277
    18  H    2.540277   3.419393   4.421414   4.145997   2.725538
    19  H    5.837952   5.302487   6.424899   7.551058   8.603908
    20  H    5.940551   4.159428   5.123116   6.315936   7.638268
    21  H    5.940562   4.159439   5.123124   6.315947   7.848311
    22  H    5.797354   2.143459   2.900093   4.170740   6.084515
    23  H    1.094308   6.056511   7.397979   7.532254   6.178601
    24  H    1.094950   5.118472   6.341278   6.293838   4.942430
    25  H    1.094948   5.118470   6.341278   6.293838   4.601658
    26  H    7.299818   2.242454   1.081968   2.190197   5.190736
    27  H    7.396664   3.324967   2.237369   1.082185   3.505656
                   16         17         18         19         20
    16  H    0.000000
    17  H    1.788070   0.000000
    18  H    4.010249   2.725533   0.000000
    19  H    9.403035   8.603908   6.578778   0.000000
    20  H    8.353289   7.848297   6.064411   1.766780   0.000000
    21  H    8.353303   7.638281   6.064423   1.766777   1.807747
    22  H    6.423450   6.084512   4.990422   3.623193   2.347693
    23  H    7.609372   6.178600   3.621146   6.040654   6.399390
    24  H    6.176213   4.601653   2.346045   6.401531   6.520527
    25  H    6.176215   4.942432   2.346051   6.401522   6.264941
    26  H    4.780057   5.190735   5.473116   6.568162   5.172573
    27  H    2.413624   3.505655   4.991918   8.590004   7.309663
                   21         22         23         24         25
    21  H    0.000000
    22  H    2.347695   0.000000
    23  H    6.399400   6.576529   0.000000
    24  H    6.264960   6.063659   1.766776   0.000000
    25  H    6.520531   6.063656   1.766772   1.807609   0.000000
    26  H    5.172580   2.945363   8.298546   7.311034   7.311033
    27  H    7.309674   5.131023   8.487942   7.186044   7.186046
                   26         27
    26  H    0.000000
    27  H    2.711992   0.000000
 Symmetry turned off by external request.
 Stoichiometry    C11H13NO2
 Framework group  C1[X(C11H13NO2)]
 Deg. of freedom    75
 Full point group                 C1      NOp   1
 Rotational constants (GHZ):           1.0571509           0.5296297           0.3552951
 Leave Link  202 at Fri May 24 13:58:54 2024, MaxMem=   104857600 cpu:               0.3 elap:               0.1
 (Enter /software/spackages_v0_21_prod/apps/linux-ubuntu22.04-zen2/gcc-13.2.0/gaussian_sse4-16-C-g6jkfwqig4o4stofyyxv7ma3rrfxhpfk/g16/l301.exe)
 Standard basis: 3-21G* (6D, 7F)
 Ernie: Thresh=  0.10000D-02 Tol=  0.10000D-05 Strict=F.
   152 basis functions,   249 primitive gaussians,   152 cartesian basis functions
    51 alpha electrons       51 beta electrons
       nuclear repulsion energy       882.6519064743 Hartrees.
 IExCor=  402 DFT=T Ex+Corr=B3LYP ExCW=0 ScaHFX=  0.200000
 ScaDFX=  0.800000  0.720000  1.000000  0.810000 ScalE2=  1.000000  1.000000
 IRadAn=      5 IRanWt=     -1 IRanGd=            0 ICorTp=0 IEmpDi=  4
 NAtoms=   27 NActive=   27 NUniq=   27 SFac= 1.00D+00 NAtFMM=   60 NAOKFM=F Big=F
 Integral buffers will be    131072 words long.
 Raffenetti 2 integral format.
 Two-electron integral symmetry is turned off.
 Leave Link  301 at Fri May 24 13:58:54 2024, MaxMem=   104857600 cpu:               0.3 elap:               0.1
 (Enter /software/spackages_v0_21_prod/apps/linux-ubuntu22.04-zen2/gcc-13.2.0/gaussian_sse4-16-C-g6jkfwqig4o4stofyyxv7ma3rrfxhpfk/g16/l302.exe)
 NPDir=0 NMtPBC=     1 NCelOv=     1 NCel=       1 NClECP=     1 NCelD=      1
         NCelK=      1 NCelE2=     1 NClLst=     1 CellRange=     0.0.
 One-electron integrals computed using PRISM.
 NBasis=   152 RedAO= T EigKep=  1.26D-03  NBF=   152
 NBsUse=   152 1.00D-06 EigRej= -1.00D+00 NBFU=   152
 Precomputing XC quadrature grid using
 IXCGrd= 4 IRadAn=           5 IRanWt=          -1 IRanGd=           0 AccXCQ= 0.00D+00.
 Generated NRdTot=       0 NPtTot=           0 NUsed=           0 NTot=          32
 NSgBfM=   150   150   150   150   150 MxSgAt=    27 MxSgA2=    27.
 Leave Link  302 at Fri May 24 13:58:55 2024, MaxMem=   104857600 cpu:               2.1 elap:               1.0
 (Enter /software/spackages_v0_21_prod/apps/linux-ubuntu22.04-zen2/gcc-13.2.0/gaussian_sse4-16-C-g6jkfwqig4o4stofyyxv7ma3rrfxhpfk/g16/l303.exe)
 DipDrv:  MaxL=1.
 Leave Link  303 at Fri May 24 13:58:55 2024, MaxMem=   104857600 cpu:               0.3 elap:               0.1
 (Enter /software/spackages_v0_21_prod/apps/linux-ubuntu22.04-zen2/gcc-13.2.0/gaussian_sse4-16-C-g6jkfwqig4o4stofyyxv7ma3rrfxhpfk/g16/l401.exe)
 ExpMin= 1.83D-01 ExpMax= 3.22D+02 ExpMxC= 3.22D+02 IAcc=3 IRadAn=         5 AccDes= 0.00D+00
 Harris functional with IExCor=  402 and IRadAn=       5 diagonalized for initial guess.
 HarFok:  IExCor=  402 AccDes= 0.00D+00 IRadAn=         5 IDoV= 1 UseB2=F ITyADJ=14
 ICtDFT=  3500011 ScaDFX=  1.000000  1.000000  1.000000  1.000000
 FoFCou: FMM=F IPFlag=           0 FMFlag=      100000 FMFlg1=           0
         NFxFlg=           0 DoJE=T BraDBF=F KetDBF=T FulRan=T
         wScrn=  0.000000 ICntrl=       500 IOpCl=  0 I1Cent=   200000004 NGrid=           0
         NMat0=    1 NMatS0=      1 NMatT0=    0 NMatD0=    1 NMtDS0=    0 NMtDT0=    0
 Symmetry not used in FoFCou.
 Harris En= -628.629890788805    
 JPrj=0 DoOrth=F DoCkMO=F.
 Leave Link  401 at Fri May 24 13:58:59 2024, MaxMem=   104857600 cpu:               7.4 elap:               3.7
 (Enter /software/spackages_v0_21_prod/apps/linux-ubuntu22.04-zen2/gcc-13.2.0/gaussian_sse4-16-C-g6jkfwqig4o4stofyyxv7ma3rrfxhpfk/g16/l502.exe)
 Keep R1 ints in memory in canonical form, NReq=71537218.
 FoFCou: FMM=F IPFlag=           0 FMFlag=           0 FMFlg1=           0
         NFxFlg=           0 DoJE=F BraDBF=F KetDBF=F FulRan=T
         wScrn=  0.000000 ICntrl=       600 IOpCl=  0 I1Cent=           0 NGrid=           0
         NMat0=    1 NMatS0=  11628 NMatT0=    0 NMatD0=    1 NMtDS0=    0 NMtDT0=    0
 Symmetry not used in FoFCou.
 Two-electron integral symmetry not used.
 Closed shell SCF:
 Using DIIS extrapolation, IDIIS=  1040.
 NGot=   104857600 LenX=    37197090 LenY=    37173545
 Requested convergence on RMS density matrix=1.00D-08 within 128 cycles.
 Requested convergence on MAX density matrix=1.00D-06.
 Requested convergence on             energy=1.00D-06.
 No special actions if energy rises.
 Integral accuracy reduced to 1.0D-05 until final iterations.

 Cycle   1  Pass 0  IDiag  1:
 E= -628.472079141641    
 DIIS: error= 2.88D-02 at cycle   1 NSaved=   1.
 NSaved= 1 IEnMin= 1 EnMin= -628.472079141641     IErMin= 1 ErrMin= 2.88D-02
 ErrMax= 2.88D-02  0.00D+00 EMaxC= 1.00D-01 BMatC= 2.07D-01 BMatP= 2.07D-01
 IDIUse=3 WtCom= 7.12D-01 WtEn= 2.88D-01
 Coeff-Com:  0.100D+01
 Coeff-En:   0.100D+01
 Coeff:      0.100D+01
 Gap=     0.200 Goal=   None    Shift=    0.000
 GapD=    0.200 DampG=1.000 DampE=0.500 DampFc=0.5000 IDamp=-1.
 Damping current iteration by 5.00D-01
 RMSDP=7.24D-03 MaxDP=1.25D-01              OVMax= 2.40D-01

 Cycle   2  Pass 0  IDiag  1:
 E= -628.566637042086     Delta-E=       -0.094557900445 Rises=F Damp=T
 DIIS: error= 8.92D-03 at cycle   2 NSaved=   2.
 NSaved= 2 IEnMin= 2 EnMin= -628.566637042086     IErMin= 2 ErrMin= 8.92D-03
 ErrMax= 8.92D-03  0.00D+00 EMaxC= 1.00D-01 BMatC= 1.77D-02 BMatP= 2.07D-01
 IDIUse=3 WtCom= 9.11D-01 WtEn= 8.92D-02
 Coeff-Com:  0.570D-01 0.943D+00
 Coeff-En:   0.100D+00 0.900D+00
 Coeff:      0.609D-01 0.939D+00
 Gap=     0.193 Goal=   None    Shift=    0.000
 RMSDP=2.51D-03 MaxDP=4.00D-02 DE=-9.46D-02 OVMax= 2.04D-01

 Cycle   3  Pass 0  IDiag  1:
 E= -628.664019906659     Delta-E=       -0.097382864572 Rises=F Damp=F
 DIIS: error= 1.41D-02 at cycle   3 NSaved=   3.
 NSaved= 3 IEnMin= 3 EnMin= -628.664019906659     IErMin= 2 ErrMin= 8.92D-03
 ErrMax= 1.41D-02  0.00D+00 EMaxC= 1.00D-01 BMatC= 2.31D-02 BMatP= 1.77D-02
 IDIUse=2 WtCom= 0.00D+00 WtEn= 1.00D+00
 Coeff-En:   0.000D+00 0.000D+00 0.100D+01
 Coeff:      0.000D+00 0.000D+00 0.100D+01
 Gap=     0.195 Goal=   None    Shift=    0.000
 RMSDP=3.72D-03 MaxDP=6.85D-02 DE=-9.74D-02 OVMax= 1.85D-01

 Cycle   4  Pass 0  IDiag  1:
 E= -628.589362330778     Delta-E=        0.074657575881 Rises=F Damp=F
 DIIS: error= 3.00D-02 at cycle   4 NSaved=   4.
 NSaved= 4 IEnMin= 3 EnMin= -628.664019906659     IErMin= 2 ErrMin= 8.92D-03
 ErrMax= 3.00D-02  0.00D+00 EMaxC= 1.00D-01 BMatC= 9.23D-02 BMatP= 1.77D-02
 IDIUse=2 WtCom= 0.00D+00 WtEn= 1.00D+00
 Coeff-En:   0.000D+00 0.000D+00 0.752D+00 0.248D+00
 Coeff:      0.000D+00 0.000D+00 0.752D+00 0.248D+00
 Gap=     0.189 Goal=   None    Shift=    0.000
 RMSDP=1.90D-03 MaxDP=3.60D-02 DE= 7.47D-02 OVMax= 9.55D-02

 Cycle   5  Pass 0  IDiag  1:
 E= -628.682869214331     Delta-E=       -0.093506883553 Rises=F Damp=F
 DIIS: error= 7.20D-03 at cycle   5 NSaved=   5.
 NSaved= 5 IEnMin= 5 EnMin= -628.682869214331     IErMin= 5 ErrMin= 7.20D-03
 ErrMax= 7.20D-03  0.00D+00 EMaxC= 1.00D-01 BMatC= 5.51D-03 BMatP= 1.77D-02
 IDIUse=3 WtCom= 9.28D-01 WtEn= 7.20D-02
 Coeff-Com:  0.430D-02 0.562D-03 0.312D+00-0.132D-01 0.697D+00
 Coeff-En:   0.000D+00 0.000D+00 0.237D+00 0.000D+00 0.763D+00
 Coeff:      0.399D-02 0.521D-03 0.306D+00-0.122D-01 0.701D+00
 Gap=     0.188 Goal=   None    Shift=    0.000
 RMSDP=6.28D-04 MaxDP=1.24D-02 DE=-9.35D-02 OVMax= 3.10D-02

 Cycle   6  Pass 0  IDiag  1:
 E= -628.688729552206     Delta-E=       -0.005860337875 Rises=F Damp=F
 DIIS: error= 5.77D-04 at cycle   6 NSaved=   6.
 NSaved= 6 IEnMin= 6 EnMin= -628.688729552206     IErMin= 6 ErrMin= 5.77D-04
 ErrMax= 5.77D-04  0.00D+00 EMaxC= 1.00D-01 BMatC= 2.98D-05 BMatP= 5.51D-03
 IDIUse=3 WtCom= 9.94D-01 WtEn= 5.77D-03
 Coeff-Com: -0.128D-02 0.358D-02 0.891D-01-0.452D-01 0.378D+00 0.576D+00
 Coeff-En:   0.000D+00 0.000D+00 0.000D+00 0.000D+00 0.000D+00 0.100D+01
 Coeff:     -0.127D-02 0.356D-02 0.886D-01-0.449D-01 0.376D+00 0.578D+00
 Gap=     0.187 Goal=   None    Shift=    0.000
 RMSDP=5.18D-05 MaxDP=1.05D-03 DE=-5.86D-03 OVMax= 3.29D-03

 Cycle   7  Pass 0  IDiag  1:
 E= -628.688759352641     Delta-E=       -0.000029800435 Rises=F Damp=F
 DIIS: error= 1.96D-04 at cycle   7 NSaved=   7.
 NSaved= 7 IEnMin= 7 EnMin= -628.688759352641     IErMin= 7 ErrMin= 1.96D-04
 ErrMax= 1.96D-04  0.00D+00 EMaxC= 1.00D-01 BMatC= 2.61D-06 BMatP= 2.98D-05
 IDIUse=3 WtCom= 9.98D-01 WtEn= 1.96D-03
 Coeff-Com: -0.106D-02 0.283D-02 0.408D-01-0.296D-01 0.209D+00 0.363D+00
 Coeff-Com:  0.415D+00
 Coeff-En:   0.000D+00 0.000D+00 0.000D+00 0.000D+00 0.000D+00 0.000D+00
 Coeff-En:   0.100D+01
 Coeff:     -0.106D-02 0.282D-02 0.408D-01-0.296D-01 0.208D+00 0.363D+00
 Coeff:      0.416D+00
 Gap=     0.187 Goal=   None    Shift=    0.000
 RMSDP=1.55D-05 MaxDP=2.72D-04 DE=-2.98D-05 OVMax= 8.52D-04

 Cycle   8  Pass 0  IDiag  1:
 E= -628.688762089656     Delta-E=       -0.000002737015 Rises=F Damp=F
 DIIS: error= 3.16D-05 at cycle   8 NSaved=   8.
 NSaved= 8 IEnMin= 8 EnMin= -628.688762089656     IErMin= 8 ErrMin= 3.16D-05
 ErrMax= 3.16D-05  0.00D+00 EMaxC= 1.00D-01 BMatC= 1.36D-07 BMatP= 2.61D-06
 IDIUse=1 WtCom= 1.00D+00 WtEn= 0.00D+00
 Coeff-Com: -0.388D-03 0.991D-03 0.158D-01-0.128D-01 0.856D-01 0.158D+00
 Coeff-Com:  0.219D+00 0.534D+00
 Coeff:     -0.388D-03 0.991D-03 0.158D-01-0.128D-01 0.856D-01 0.158D+00
 Coeff:      0.219D+00 0.534D+00
 Gap=     0.187 Goal=   None    Shift=    0.000
 RMSDP=3.48D-06 MaxDP=7.26D-05 DE=-2.74D-06 OVMax= 1.48D-04

 Initial convergence to 1.0D-05 achieved.  Increase integral accuracy.
 Cycle   9  Pass 1  IDiag  1:
 E= -628.688759342972     Delta-E=        0.000002746684 Rises=F Damp=F
 DIIS: error= 1.24D-05 at cycle   1 NSaved=   1.
 NSaved= 1 IEnMin= 1 EnMin= -628.688759342972     IErMin= 1 ErrMin= 1.24D-05
 ErrMax= 1.24D-05  0.00D+00 EMaxC= 1.00D-01 BMatC= 2.15D-08 BMatP= 2.15D-08
 IDIUse=1 WtCom= 1.00D+00 WtEn= 0.00D+00
 Coeff-Com:  0.100D+01
 Coeff:      0.100D+01
 Gap=     0.187 Goal=   None    Shift=    0.000
 RMSDP=3.48D-06 MaxDP=7.26D-05 DE= 2.75D-06 OVMax= 1.23D-04

 Cycle  10  Pass 1  IDiag  1:
 E= -628.688759303667     Delta-E=        0.000000039304 Rises=F Damp=F
 DIIS: error= 2.56D-05 at cycle   2 NSaved=   2.
 NSaved= 2 IEnMin= 1 EnMin= -628.688759342972     IErMin= 1 ErrMin= 1.24D-05
 ErrMax= 2.56D-05  0.00D+00 EMaxC= 1.00D-01 BMatC= 6.05D-08 BMatP= 2.15D-08
 IDIUse=1 WtCom= 1.00D+00 WtEn= 0.00D+00
 Coeff-Com:  0.633D+00 0.367D+00
 Coeff:      0.633D+00 0.367D+00
 Gap=     0.187 Goal=   None    Shift=    0.000
 RMSDP=2.15D-06 MaxDP=4.01D-05 DE= 3.93D-08 OVMax= 1.14D-04

 Cycle  11  Pass 1  IDiag  1:
 E= -628.688759367009     Delta-E=       -0.000000063342 Rises=F Damp=F
 DIIS: error= 3.94D-06 at cycle   3 NSaved=   3.
 NSaved= 3 IEnMin= 3 EnMin= -628.688759367009     IErMin= 3 ErrMin= 3.94D-06
 ErrMax= 3.94D-06  0.00D+00 EMaxC= 1.00D-01 BMatC= 1.23D-09 BMatP= 2.15D-08
 IDIUse=1 WtCom= 1.00D+00 WtEn= 0.00D+00
 Coeff-Com:  0.219D+00 0.171D+00 0.610D+00
 Coeff:      0.219D+00 0.171D+00 0.610D+00
 Gap=     0.187 Goal=   None    Shift=    0.000
 RMSDP=4.19D-07 MaxDP=8.05D-06 DE=-6.33D-08 OVMax= 1.82D-05

 Cycle  12  Pass 1  IDiag  1:
 E= -628.688759368026     Delta-E=       -0.000000001017 Rises=F Damp=F
 DIIS: error= 1.60D-06 at cycle   4 NSaved=   4.
 NSaved= 4 IEnMin= 4 EnMin= -628.688759368026     IErMin= 4 ErrMin= 1.60D-06
 ErrMax= 1.60D-06  0.00D+00 EMaxC= 1.00D-01 BMatC= 2.81D-10 BMatP= 1.23D-09
 IDIUse=1 WtCom= 1.00D+00 WtEn= 0.00D+00
 Coeff-Com: -0.141D-01 0.195D-01 0.354D+00 0.641D+00
 Coeff:     -0.141D-01 0.195D-01 0.354D+00 0.641D+00
 Gap=     0.187 Goal=   None    Shift=    0.000
 RMSDP=1.40D-07 MaxDP=2.62D-06 DE=-1.02D-09 OVMax= 7.14D-06

 Cycle  13  Pass 1  IDiag  1:
 E= -628.688759368292     Delta-E=       -0.000000000266 Rises=F Damp=F
 DIIS: error= 3.03D-07 at cycle   5 NSaved=   5.
 NSaved= 5 IEnMin= 5 EnMin= -628.688759368292     IErMin= 5 ErrMin= 3.03D-07
 ErrMax= 3.03D-07  0.00D+00 EMaxC= 1.00D-01 BMatC= 1.10D-11 BMatP= 2.81D-10
 IDIUse=1 WtCom= 1.00D+00 WtEn= 0.00D+00
 Coeff-Com: -0.131D-01 0.679D-02 0.175D+00 0.348D+00 0.484D+00
 Coeff:     -0.131D-01 0.679D-02 0.175D+00 0.348D+00 0.484D+00
 Gap=     0.187 Goal=   None    Shift=    0.000
 RMSDP=2.46D-08 MaxDP=5.13D-07 DE=-2.66D-10 OVMax= 9.45D-07

 Cycle  14  Pass 1  IDiag  1:
 E= -628.688759368295     Delta-E=       -0.000000000003 Rises=F Damp=F
 DIIS: error= 1.08D-07 at cycle   6 NSaved=   6.
 NSaved= 6 IEnMin= 6 EnMin= -628.688759368295     IErMin= 6 ErrMin= 1.08D-07
 ErrMax= 1.08D-07  0.00D+00 EMaxC= 1.00D-01 BMatC= 5.40D-13 BMatP= 1.10D-11
 IDIUse=1 WtCom= 1.00D+00 WtEn= 0.00D+00
 Coeff-Com: -0.287D-02 0.850D-03 0.177D-01 0.520D-01 0.181D+00 0.752D+00
 Coeff:     -0.287D-02 0.850D-03 0.177D-01 0.520D-01 0.181D+00 0.752D+00
 Gap=     0.187 Goal=   None    Shift=    0.000
 RMSDP=9.15D-09 MaxDP=2.10D-07 DE=-2.96D-12 OVMax= 3.67D-07

 SCF Done:  E(RB3LYP) =  -628.688759368     A.U. after   14 cycles
            NFock= 14  Conv=0.91D-08     -V/T= 2.0083
 KE= 6.235145605387D+02 PE=-3.228228663409D+03 EE= 1.093373437027D+03
 Leave Link  502 at Fri May 24 13:59:35 2024, MaxMem=   104857600 cpu:              71.8 elap:              36.5
 (Enter /software/spackages_v0_21_prod/apps/linux-ubuntu22.04-zen2/gcc-13.2.0/gaussian_sse4-16-C-g6jkfwqig4o4stofyyxv7ma3rrfxhpfk/g16/l601.exe)
 Copying SCF densities to generalized density rwf, IOpCl= 0 IROHF=0.

 **********************************************************************

            Population analysis using the SCF Density.

 **********************************************************************

 Alpha  occ. eigenvalues --  -19.05769 -19.05250 -14.29562 -10.17820 -10.17273
 Alpha  occ. eigenvalues --  -10.17134 -10.16664 -10.16659 -10.14459 -10.14400
 Alpha  occ. eigenvalues --  -10.12106 -10.11352 -10.10867 -10.09771  -1.06384
 Alpha  occ. eigenvalues --   -1.04570  -0.99072  -0.84128  -0.79801  -0.75021
 Alpha  occ. eigenvalues --   -0.73514  -0.70227  -0.68720  -0.67478  -0.60778
 Alpha  occ. eigenvalues --   -0.58028  -0.56618  -0.52878  -0.51451  -0.50411
 Alpha  occ. eigenvalues --   -0.47122  -0.46667  -0.46484  -0.45515  -0.44964
 Alpha  occ. eigenvalues --   -0.44630  -0.42749  -0.41319  -0.40478  -0.39781
 Alpha  occ. eigenvalues --   -0.39207  -0.38470  -0.35943  -0.34863  -0.31253
 Alpha  occ. eigenvalues --   -0.30653  -0.29931  -0.27359  -0.25348  -0.18506
 Alpha  occ. eigenvalues --   -0.17944
 Alpha virt. eigenvalues --    0.00757   0.05248   0.09305   0.09959   0.12089
 Alpha virt. eigenvalues --    0.12890   0.13570   0.14325   0.16337   0.16923
 Alpha virt. eigenvalues --    0.17362   0.17718   0.17741   0.18461   0.19374
 Alpha virt. eigenvalues --    0.19938   0.20014   0.20422   0.21334   0.21389
 Alpha virt. eigenvalues --    0.25465   0.26895   0.29493   0.32502   0.34501
 Alpha virt. eigenvalues --    0.37104   0.41113   0.44039   0.45679   0.51298
 Alpha virt. eigenvalues --    0.58939   0.62484   0.64484   0.66564   0.67526
 Alpha virt. eigenvalues --    0.67715   0.69834   0.69837   0.70694   0.72090
 Alpha virt. eigenvalues --    0.72487   0.74889   0.75398   0.76657   0.77363
 Alpha virt. eigenvalues --    0.79972   0.81064   0.81714   0.86266   0.86669
 Alpha virt. eigenvalues --    0.87778   0.88555   0.89452   0.90839   0.91666
 Alpha virt. eigenvalues --    0.94232   0.97070   0.98744   1.00257   1.01134
 Alpha virt. eigenvalues --    1.01522   1.02266   1.03548   1.03885   1.05263
 Alpha virt. eigenvalues --    1.06271   1.07314   1.12942   1.15548   1.17704
 Alpha virt. eigenvalues --    1.19866   1.21353   1.23843   1.27124   1.27444
 Alpha virt. eigenvalues --    1.28631   1.34903   1.40738   1.47074   1.52218
 Alpha virt. eigenvalues --    1.53837   1.57577   1.58455   1.59908   1.64838
 Alpha virt. eigenvalues --    1.65370   1.69592   1.74366   1.77060   1.78854
 Alpha virt. eigenvalues --    1.85358   1.89734   1.99571   2.06140   2.11463
 Alpha virt. eigenvalues --    2.15748   2.22343   2.46968   2.92970   3.23978
 Alpha virt. eigenvalues --    3.57131
          Condensed to atoms (all electrons):
               1          2          3          4          5          6
     1  C    5.097192   0.256842  -0.051615   0.001090   0.000094  -0.000003
     2  N    0.256842   7.346821   0.235442  -0.047670   0.003378  -0.000245
     3  C   -0.051615   0.235442   5.101831   0.290897  -0.002516  -0.036676
     4  C    0.001090  -0.047670   0.290897   5.535251   0.248533  -0.081016
     5  C    0.000094   0.003378  -0.002516   0.248533   5.104691   0.354385
     6  C   -0.000003  -0.000245  -0.036676  -0.081016   0.354385   5.104862
     7  O   -0.000000  -0.000000  -0.000299   0.003031  -0.055915   0.286765
     8  C    0.000000  -0.000000   0.000007  -0.000101   0.004618  -0.072084
     9  C   -0.000079   0.006667  -0.050113  -0.037604  -0.080849   0.260770
    10  O   -0.000000  -0.000000   0.003602  -0.063861   0.286522  -0.055530
    11  C   -0.000001  -0.000001   0.000272  -0.012222  -0.071847   0.004608
    12  C    0.002681  -0.060016   0.405595  -0.039893  -0.032664  -0.013605
    13  C    0.004386  -0.098686  -0.128288   0.006686  -0.000198   0.003660
    14  C   -0.042015   0.311247  -0.132264   0.002374  -0.000046  -0.000153
    15  H    0.363394  -0.043215  -0.001758   0.001378  -0.000008  -0.000001
    16  H    0.371150  -0.027452   0.003015   0.000021  -0.000001   0.000000
    17  H    0.363394  -0.043215  -0.001758   0.001378  -0.000008  -0.000001
    18  H    0.002268  -0.005526  -0.053682   0.402370  -0.055971   0.002922
    19  H    0.000000  -0.000000  -0.000000   0.000001   0.000022   0.003375
    20  H    0.000000   0.000000  -0.000001  -0.000003  -0.000267  -0.005963
    21  H    0.000000   0.000000  -0.000001  -0.000003  -0.000267  -0.005963
    22  H    0.000001  -0.000045   0.004936  -0.000163   0.002814  -0.056507
    23  H    0.000000  -0.000000   0.000002   0.000003   0.003406   0.000024
    24  H   -0.000001  -0.000000  -0.000215   0.005710  -0.006129  -0.000275
    25  H   -0.000001  -0.000000  -0.000215   0.005710  -0.006128  -0.000275
    26  H   -0.000050   0.002762   0.004005  -0.000089  -0.000000   0.000031
    27  H   -0.001477  -0.037190   0.003534  -0.000046   0.000001   0.000000
               7          8          9         10         11         12
     1  C   -0.000000   0.000000  -0.000079  -0.000000  -0.000001   0.002681
     2  N   -0.000000  -0.000000   0.006667  -0.000000  -0.000001  -0.060016
     3  C   -0.000299   0.000007  -0.050113   0.003602   0.000272   0.405595
     4  C    0.003031  -0.000101  -0.037604  -0.063861  -0.012222  -0.039893
     5  C   -0.055915   0.004618  -0.080849   0.286522  -0.071847  -0.032664
     6  C    0.286765  -0.072084   0.260770  -0.055530   0.004608  -0.013605
     7  O    8.223862   0.265194  -0.065049   0.000765   0.000030   0.003836
     8  C    0.265194   5.093626  -0.012284   0.000028  -0.000000   0.000311
     9  C   -0.065049  -0.012284   5.518657   0.002953  -0.000105   0.329214
    10  O    0.000765   0.000028   0.002953   8.218473   0.264156  -0.000271
    11  C    0.000030  -0.000000  -0.000105   0.264156   5.095326   0.000010
    12  C    0.003836   0.000311   0.329214  -0.000271   0.000010   5.189906
    13  C    0.000000  -0.000003  -0.036694  -0.000000   0.000000   0.446813
    14  C   -0.000000   0.000000   0.003892   0.000000   0.000000  -0.115881
    15  H    0.000000   0.000000  -0.000002   0.000000  -0.000001   0.000194
    16  H   -0.000000   0.000000   0.000001  -0.000000  -0.000000  -0.000166
    17  H    0.000000   0.000000  -0.000002   0.000000  -0.000001   0.000194
    18  H   -0.000003   0.000001  -0.000290  -0.006626   0.002114   0.004101
    19  H   -0.025723   0.368594   0.000028  -0.000001  -0.000000   0.000003
    20  H   -0.035553   0.330175   0.005698  -0.000002   0.000000  -0.000235
    21  H   -0.035553   0.330175   0.005698  -0.000002   0.000000  -0.000235
    22  H   -0.006575   0.001757   0.400053  -0.000004   0.000001  -0.046727
    23  H   -0.000001  -0.000000   0.000001  -0.025629   0.369302  -0.000000
    24  H   -0.000002   0.000000  -0.000002  -0.035513   0.329329  -0.000001
    25  H   -0.000002   0.000000  -0.000002  -0.035513   0.329329  -0.000001
    26  H    0.000000  -0.000000  -0.001993  -0.000000   0.000000  -0.033972
    27  H   -0.000000  -0.000000  -0.000062  -0.000000  -0.000000   0.002872
              13         14         15         16         17         18
     1  C    0.004386  -0.042015   0.363394   0.371150   0.363394   0.002268
     2  N   -0.098686   0.311247  -0.043215  -0.027452  -0.043215  -0.005526
     3  C   -0.128288  -0.132264  -0.001758   0.003015  -0.001758  -0.053682
     4  C    0.006686   0.002374   0.001378   0.000021   0.001378   0.402370
     5  C   -0.000198  -0.000046  -0.000008  -0.000001  -0.000008  -0.055971
     6  C    0.003660  -0.000153  -0.000001   0.000000  -0.000001   0.002922
     7  O    0.000000  -0.000000   0.000000  -0.000000   0.000000  -0.000003
     8  C   -0.000003   0.000000   0.000000   0.000000   0.000000   0.000001
     9  C   -0.036694   0.003892  -0.000002   0.000001  -0.000002  -0.000290
    10  O   -0.000000   0.000000   0.000000  -0.000000   0.000000  -0.006626
    11  C    0.000000   0.000000  -0.000001  -0.000000  -0.000001   0.002114
    12  C    0.446813  -0.115881   0.000194  -0.000166   0.000194   0.004101
    13  C    5.145715   0.537675  -0.000112   0.000273  -0.000112  -0.000113
    14  C    0.537675   4.991508   0.001352  -0.002992   0.001352   0.000005
    15  H   -0.000112   0.001352   0.526137  -0.025314  -0.037603   0.000573
    16  H    0.000273  -0.002992  -0.025314   0.494123  -0.025314  -0.000021
    17  H   -0.000112   0.001352  -0.037603  -0.025314   0.526138   0.000573
    18  H   -0.000113   0.000005   0.000573  -0.000021   0.000573   0.521815
    19  H   -0.000000   0.000000  -0.000000  -0.000000  -0.000000  -0.000000
    20  H   -0.000003   0.000000  -0.000000   0.000000   0.000000  -0.000000
    21  H   -0.000003   0.000000   0.000000   0.000000  -0.000000  -0.000000
    22  H   -0.003711   0.000017   0.000000  -0.000000   0.000000   0.000001
    23  H   -0.000000   0.000000  -0.000000   0.000000  -0.000000  -0.000093
    24  H    0.000000   0.000000  -0.000002  -0.000000   0.000005   0.002591
    25  H    0.000000   0.000000   0.000005  -0.000000  -0.000002   0.002590
    26  H    0.396027  -0.036217   0.000001  -0.000002   0.000001   0.000001
    27  H   -0.024874   0.380508   0.000011   0.002533   0.000011   0.000000
              19         20         21         22         23         24
     1  C    0.000000   0.000000   0.000000   0.000001   0.000000  -0.000001
     2  N   -0.000000   0.000000   0.000000  -0.000045  -0.000000  -0.000000
     3  C   -0.000000  -0.000001  -0.000001   0.004936   0.000002  -0.000215
     4  C    0.000001  -0.000003  -0.000003  -0.000163   0.000003   0.005710
     5  C    0.000022  -0.000267  -0.000267   0.002814   0.003406  -0.006129
     6  C    0.003375  -0.005963  -0.005963  -0.056507   0.000024  -0.000275
     7  O   -0.025723  -0.035553  -0.035553  -0.006575  -0.000001  -0.000002
     8  C    0.368594   0.330175   0.330175   0.001757  -0.000000   0.000000
     9  C    0.000028   0.005698   0.005698   0.400053   0.000001  -0.000002
    10  O   -0.000001  -0.000002  -0.000002  -0.000004  -0.025629  -0.035513
    11  C   -0.000000   0.000000   0.000000   0.000001   0.369302   0.329329
    12  C    0.000003  -0.000235  -0.000235  -0.046727  -0.000000  -0.000001
    13  C   -0.000000  -0.000003  -0.000003  -0.003711  -0.000000   0.000000
    14  C    0.000000   0.000000   0.000000   0.000017   0.000000   0.000000
    15  H   -0.000000  -0.000000   0.000000   0.000000  -0.000000  -0.000002
    16  H   -0.000000   0.000000   0.000000  -0.000000   0.000000  -0.000000
    17  H   -0.000000   0.000000  -0.000000   0.000000  -0.000000   0.000005
    18  H   -0.000000  -0.000000  -0.000000   0.000001  -0.000093   0.002591
    19  H    0.509605  -0.033369  -0.033369  -0.000079  -0.000000   0.000000
    20  H   -0.033369   0.593282  -0.045576   0.002520   0.000000  -0.000000
    21  H   -0.033369  -0.045576   0.593280   0.002520   0.000000   0.000000
    22  H   -0.000079   0.002520   0.002520   0.516093  -0.000000   0.000000
    23  H   -0.000000   0.000000   0.000000  -0.000000   0.505421  -0.033202
    24  H    0.000000  -0.000000   0.000000   0.000000  -0.033202   0.595782
    25  H    0.000000   0.000000  -0.000000   0.000000  -0.033203  -0.045970
    26  H    0.000000  -0.000000  -0.000000   0.001129   0.000000  -0.000000
    27  H   -0.000000   0.000000   0.000000   0.000000  -0.000000   0.000000
              25         26         27
     1  C   -0.000001  -0.000050  -0.001477
     2  N   -0.000000   0.002762  -0.037190
     3  C   -0.000215   0.004005   0.003534
     4  C    0.005710  -0.000089  -0.000046
     5  C   -0.006128  -0.000000   0.000001
     6  C   -0.000275   0.000031   0.000000
     7  O   -0.000002   0.000000  -0.000000
     8  C    0.000000  -0.000000  -0.000000
     9  C   -0.000002  -0.001993  -0.000062
    10  O   -0.035513  -0.000000  -0.000000
    11  C    0.329329   0.000000  -0.000000
    12  C   -0.000001  -0.033972   0.002872
    13  C    0.000000   0.396027  -0.024874
    14  C    0.000000  -0.036217   0.380508
    15  H    0.000005   0.000001   0.000011
    16  H   -0.000000  -0.000002   0.002533
    17  H   -0.000002   0.000001   0.000011
    18  H    0.002590   0.000001   0.000000
    19  H    0.000000   0.000000  -0.000000
    20  H    0.000000  -0.000000   0.000000
    21  H   -0.000000  -0.000000   0.000000
    22  H    0.000000   0.001129   0.000000
    23  H   -0.033203   0.000000  -0.000000
    24  H   -0.045970  -0.000000   0.000000
    25  H    0.595781  -0.000000   0.000000
    26  H   -0.000000   0.507834  -0.001491
    27  H    0.000000  -0.001491   0.475971
 Mulliken charges:
               1
     1  C   -0.367251
     2  N   -0.799898
     3  C    0.406263
     4  C   -0.221765
     5  C    0.304350
     6  C    0.306895
     7  O   -0.558809
     8  C   -0.310014
     9  C   -0.248504
    10  O   -0.553548
    11  C   -0.310298
    12  C   -0.042064
    13  C   -0.248436
    14  C    0.099638
    15  H    0.214969
    16  H    0.210144
    17  H    0.214968
    18  H    0.180401
    19  H    0.210911
    20  H    0.189296
    21  H    0.189298
    22  H    0.181969
    23  H    0.213968
    24  H    0.187896
    25  H    0.187897
    26  H    0.162024
    27  H    0.199698
 Sum of Mulliken charges =  -0.00000
 Mulliken charges with hydrogens summed into heavy atoms:
               1
     1  C    0.272830
     2  N   -0.799898
     3  C    0.406263
     4  C   -0.041364
     5  C    0.304350
     6  C    0.306895
     7  O   -0.558809
     8  C    0.279492
     9  C   -0.066535
    10  O   -0.553548
    11  C    0.279463
    12  C   -0.042064
    13  C   -0.086412
    14  C    0.299336
 Electronic spatial extent (au):  <R**2>=           3078.8564
 Charge=              0.0000 electrons
 Dipole moment (field-independent basis, Debye):
    X=              2.1431    Y=              1.2500    Z=              0.8498  Tot=              2.6225
 Quadrupole moment (field-independent basis, Debye-Ang):
   XX=            -73.2843   YY=            -73.0003   ZZ=            -79.3320
   XY=              5.7601   XZ=              3.7245   YZ=             10.5103
 Traceless Quadrupole moment (field-independent basis, Debye-Ang):
   XX=              1.9212   YY=              2.2053   ZZ=             -4.1265
   XY=              5.7601   XZ=              3.7245   YZ=             10.5103
 Octapole moment (field-independent basis, Debye-Ang**2):
  XXX=             55.3627  YYY=             28.9348  ZZZ=             25.5950  XYY=            -16.9866
  XXY=              5.9871  XXZ=              1.5903  XZZ=            -10.7172  YZZ=              9.0968
  YYZ=              5.0234  XYZ=            -10.0762
 Hexadecapole moment (field-independent basis, Debye-Ang**3):
 XXXX=          -2270.3592 YYYY=           -881.4659 ZZZZ=           -571.2371 XXXY=              7.6983
 XXXZ=             48.6674 YYYX=            -50.3883 YYYZ=           -266.0535 ZZZX=             17.8755
 ZZZY=           -288.1931 XXYY=           -501.5922 XXZZ=           -485.9619 YYZZ=           -215.6238
 XXYZ=            -34.6711 YYXZ=             -2.8427 ZZXY=            -26.5489
 N-N= 8.826519064743D+02 E-N=-3.228228660534D+03  KE= 6.235145605387D+02
 No NMR shielding tensors so no spin-rotation constants.
 Leave Link  601 at Fri May 24 13:59:36 2024, MaxMem=   104857600 cpu:               1.0 elap:               0.5
 (Enter /software/spackages_v0_21_prod/apps/linux-ubuntu22.04-zen2/gcc-13.2.0/gaussian_sse4-16-C-g6jkfwqig4o4stofyyxv7ma3rrfxhpfk/g16/l701.exe)
 ... and contract with generalized density number  0.
 Compute integral first derivatives.
 Leave Link  701 at Fri May 24 13:59:36 2024, MaxMem=   104857600 cpu:               0.7 elap:               0.3
 (Enter /software/spackages_v0_21_prod/apps/linux-ubuntu22.04-zen2/gcc-13.2.0/gaussian_sse4-16-C-g6jkfwqig4o4stofyyxv7ma3rrfxhpfk/g16/l702.exe)
 L702 exits ... SP integral derivatives will be done elsewhere.
 Leave Link  702 at Fri May 24 13:59:36 2024, MaxMem=   104857600 cpu:               0.2 elap:               0.1
 (Enter /software/spackages_v0_21_prod/apps/linux-ubuntu22.04-zen2/gcc-13.2.0/gaussian_sse4-16-C-g6jkfwqig4o4stofyyxv7ma3rrfxhpfk/g16/l703.exe)
 Integral derivatives from FoFJK, PRISM(SPDF).
 Compute integral first derivatives, UseDBF=F ICtDFT=           0.
 Calling FoFJK, ICntrl=      2127 FMM=F ISym2X=0 I1Cent= 0 IOpClX= 0 NMat=1 NMatS=1 NMatT=0.
 FoFJK:  IHMeth= 1 ICntrl=    2127 DoSepK=F KAlg= 0 I1Cent=           0 FoldK=F
 IRaf=         0 NMat=       1 IRICut=       1 DoRegI=T DoRafI=F ISym2E= 0 IDoP0=0 IntGTp=1.
 FoFCou: FMM=F IPFlag=           0 FMFlag=      100000 FMFlg1=         800
         NFxFlg=           0 DoJE=F BraDBF=F KetDBF=F FulRan=T
         wScrn=  0.000000 ICntrl=      2127 IOpCl=  0 I1Cent=           0 NGrid=           0
         NMat0=    1 NMatS0=      1 NMatT0=    0 NMatD0=    1 NMtDS0=    0 NMtDT0=    0
 Symmetry not used in FoFCou.
 Leave Link  703 at Fri May 24 13:59:44 2024, MaxMem=   104857600 cpu:              14.8 elap:               7.4
 (Enter /software/spackages_v0_21_prod/apps/linux-ubuntu22.04-zen2/gcc-13.2.0/gaussian_sse4-16-C-g6jkfwqig4o4stofyyxv7ma3rrfxhpfk/g16/l716.exe)
 Dipole        = 8.43146107D-01 4.91796795D-01 3.34326109D-01
 -------------------------------------------------------------------
 Center     Atomic                   Forces (Hartrees/Bohr)
 Number     Number              X              Y              Z
 -------------------------------------------------------------------
      1        6          -0.001873608    0.004159873    0.003255044
      2        7           0.003699628    0.015426390    0.011572450
      3        6          -0.002524329    0.012622651    0.009743049
      4        6          -0.004189794   -0.005241594   -0.003792568
      5        6           0.020818381    0.013680580    0.009426890
      6        6           0.017502597   -0.019850832   -0.015958395
      7        8          -0.007580529    0.015240427    0.011971143
      8        6          -0.009638165   -0.012858348   -0.009326926
      9        6          -0.004948623    0.005354699    0.004313302
     10        8          -0.012545913   -0.012323439   -0.008787209
     11        6          -0.002855738    0.014672390    0.011312919
     12        6          -0.018217969   -0.010905588   -0.007440206
     13        6           0.014340231   -0.015946245   -0.012831470
     14        6          -0.000293009   -0.016009137   -0.012182581
     15        1           0.002800182    0.005461253    0.003348601
     16        1          -0.001307558    0.000534512    0.000468606
     17        1           0.002842041    0.004806045    0.004205721
     18        1          -0.003485014   -0.000791266   -0.000432891
     19        1           0.000514137    0.004032447    0.003046606
     20        1           0.003530703   -0.002987904   -0.003713971
     21        1           0.003605697   -0.004209615   -0.002115330
     22        1          -0.003692968    0.001599983    0.001394138
     23        1          -0.001303867   -0.003877347   -0.002892270
     24        1           0.005023118    0.001957408    0.002302708
     25        1           0.004961236    0.002968994    0.000973352
     26        1          -0.001168770    0.002149957    0.001692818
     27        1          -0.004012094    0.000333709    0.000446471
 -------------------------------------------------------------------
 Cartesian Forces:  Max     0.020818381 RMS     0.008513868
 Leave Link  716 at Fri May 24 13:59:44 2024, MaxMem=   104857600 cpu:               0.2 elap:               0.1
 (Enter /software/spackages_v0_21_prod/apps/linux-ubuntu22.04-zen2/gcc-13.2.0/gaussian_sse4-16-C-g6jkfwqig4o4stofyyxv7ma3rrfxhpfk/g16/l103.exe)

 GradGradGradGradGradGradGradGradGradGradGradGradGradGradGradGradGradGrad
 Berny optimization.
 FormGI is forming the generalized inverse of G from B-inverse, IUseBI=4.
 Internal  Forces:  Max     0.025855532 RMS     0.005878931
 Search for a local minimum.
 Step number   1 out of a maximum of  141
 All quantities printed in internal units (Hartrees-Bohrs-Radians)
 RMS Force = .58789D-02 SwitMx=.10000D-02 MixMth= 1
 Mixed Optimization -- RFO/linear search
 Second derivative matrix not updated -- first step.
 ITU=  0
     Eigenvalues ---    0.01084   0.01429   0.01434   0.01615   0.01937
     Eigenvalues ---    0.01989   0.01998   0.02003   0.02005   0.02010
     Eigenvalues ---    0.02012   0.02016   0.02022   0.02028   0.02033
     Eigenvalues ---    0.02098   0.02128   0.02282   0.07792   0.07878
     Eigenvalues ---    0.09986   0.09989   0.10554   0.10554   0.16000
     Eigenvalues ---    0.16000   0.16000   0.16000   0.16000   0.16000
     Eigenvalues ---    0.16000   0.16000   0.16000   0.16000   0.16000
     Eigenvalues ---    0.16000   0.16000   0.22780   0.23148   0.24009
     Eigenvalues ---    0.24788   0.25000   0.25000   0.25000   0.25000
     Eigenvalues ---    0.25000   0.25000   0.34246   0.34247   0.34247
     Eigenvalues ---    0.34247   0.34319   0.34319   0.34468   0.34470
     Eigenvalues ---    0.34471   0.35666   0.35732   0.35739   0.35758
     Eigenvalues ---    0.38780   0.38825   0.39756   0.40967   0.42479
     Eigenvalues ---    0.42539   0.43403   0.44279   0.44769   0.44963
     Eigenvalues ---    0.46519   0.48760   0.49758   0.49884   0.49992
 RFO step:  Lambda=-1.29255051D-02 EMin= 1.08388535D-02
 Linear search not attempted -- first point.
 Iteration  1 RMS(Cart)=  0.04097660 RMS(Int)=  0.00075692
 Iteration  2 RMS(Cart)=  0.00092296 RMS(Int)=  0.00021344
 Iteration  3 RMS(Cart)=  0.00000061 RMS(Int)=  0.00021344
 ITry= 1 IFail=0 DXMaxC= 1.36D-01 DCOld= 1.00D+10 DXMaxT= 3.00D-01 DXLimC= 3.00D+00 Rises=F
 Variable       Old X    -DE/DX   Delta X   Delta X   Delta X     New X
                                 (Linear)    (Quad)   (Total)
    R1        2.73246   0.01762   0.00000   0.04397   0.04397   2.77643
    R2        2.06543   0.00203   0.00000   0.00567   0.00567   2.07110
    R3        2.06548  -0.00140   0.00000  -0.00393  -0.00393   2.06155
    R4        2.06543   0.00202   0.00000   0.00566   0.00566   2.07109
    R5        2.60868   0.00595   0.00000   0.01268   0.01277   2.62146
    R6        2.58811   0.02586   0.00000   0.04902   0.04913   2.63724
    R7        2.65649  -0.00450   0.00000  -0.00916  -0.00916   2.64733
    R8        2.63576   0.02307   0.00000   0.05054   0.05047   2.68623
    R9        2.65238  -0.01279   0.00000  -0.02833  -0.02830   2.62407
   R10        2.04492  -0.00165   0.00000  -0.00446  -0.00446   2.04046
   R11        2.66150   0.01607   0.00000   0.03395   0.03398   2.69547
   R12        2.60110   0.00806   0.00000   0.01579   0.01579   2.61689
   R13        2.59983   0.00945   0.00000   0.01846   0.01846   2.61829
   R14        2.65147  -0.01450   0.00000  -0.03185  -0.03185   2.61962
   R15        2.68317   0.02001   0.00000   0.04571   0.04571   2.72889
   R16        2.06796  -0.00092   0.00000  -0.00259  -0.00259   2.06537
   R17        2.06916   0.00247   0.00000   0.00694   0.00694   2.07610
   R18        2.06915   0.00247   0.00000   0.00695   0.00695   2.07610
   R19        2.66398  -0.00116   0.00000  -0.00183  -0.00186   2.66212
   R20        2.04607  -0.00148   0.00000  -0.00402  -0.00402   2.04206
   R21        2.68243   0.02028   0.00000   0.04626   0.04626   2.72869
   R22        2.06794  -0.00104   0.00000  -0.00292  -0.00292   2.06502
   R23        2.06916   0.00259   0.00000   0.00728   0.00728   2.07643
   R24        2.06915   0.00259   0.00000   0.00728   0.00728   2.07643
   R25        2.68700   0.01249   0.00000   0.02838   0.02826   2.71525
   R26        2.60005   0.00467   0.00000   0.00804   0.00802   2.60806
   R27        2.04462  -0.00288   0.00000  -0.00778  -0.00778   2.03684
   R28        2.04503  -0.00405   0.00000  -0.01093  -0.01093   2.03410
    A1        1.89255   0.00852   0.00000   0.05044   0.04968   1.94223
    A2        1.91317  -0.00247   0.00000  -0.01661  -0.01645   1.89672
    A3        1.89255   0.00852   0.00000   0.05043   0.04967   1.94222
    A4        1.91574  -0.00360   0.00000  -0.02322  -0.02307   1.89268
    A5        1.93372  -0.00708   0.00000  -0.03608  -0.03763   1.89609
    A6        1.91575  -0.00360   0.00000  -0.02323  -0.02307   1.89267
    A7        2.18224   0.00215   0.00000   0.00762   0.00753   2.18977
    A8        2.17590   0.00905   0.00000   0.03386   0.03378   2.20968
    A9        1.92504  -0.01120   0.00000  -0.04148  -0.04131   1.88373
   A10        2.28814  -0.00239   0.00000  -0.01279  -0.01279   2.27535
   A11        1.86471   0.00490   0.00000   0.02020   0.02025   1.88496
   A12        2.13033  -0.00251   0.00000  -0.00740  -0.00746   2.12287
   A13        2.06487   0.00012   0.00000   0.00083   0.00086   2.06572
   A14        2.08726   0.00321   0.00000   0.01850   0.01849   2.10575
   A15        2.13106  -0.00333   0.00000  -0.01933  -0.01934   2.11172
   A16        2.10386   0.00202   0.00000   0.00456   0.00461   2.10847
   A17        2.16070   0.00123   0.00000   0.00623   0.00621   2.16691
   A18        2.01862  -0.00325   0.00000  -0.01079  -0.01082   2.00780
   A19        2.02221  -0.00503   0.00000  -0.01764  -0.01765   2.00456
   A20        2.09717   0.00247   0.00000   0.00646   0.00647   2.10364
   A21        2.16381   0.00255   0.00000   0.01119   0.01118   2.17499
   A22        2.05288   0.00313   0.00000   0.01192   0.01192   2.06480
   A23        1.88119  -0.00741   0.00000  -0.04024  -0.04002   1.84117
   A24        1.94044   0.00394   0.00000   0.02141   0.02152   1.96196
   A25        1.94045   0.00394   0.00000   0.02143   0.02154   1.96199
   A26        1.87817   0.00292   0.00000   0.01952   0.01972   1.89789
   A27        1.87817   0.00292   0.00000   0.01950   0.01971   1.89789
   A28        1.94215  -0.00644   0.00000  -0.04176  -0.04173   1.90041
   A29        2.09166  -0.00129   0.00000  -0.00476  -0.00480   2.08686
   A30        2.13143  -0.00344   0.00000  -0.02124  -0.02122   2.11021
   A31        2.06010   0.00473   0.00000   0.02600   0.02602   2.08612
   A32        2.05511   0.00321   0.00000   0.01221   0.01221   2.06733
   A33        1.88140  -0.00732   0.00000  -0.03990  -0.03969   1.84171
   A34        1.94045   0.00393   0.00000   0.02145   0.02156   1.96201
   A35        1.94045   0.00393   0.00000   0.02146   0.02156   1.96201
   A36        1.87818   0.00281   0.00000   0.01869   0.01890   1.89707
   A37        1.87817   0.00282   0.00000   0.01871   0.01891   1.89709
   A38        1.94193  -0.00630   0.00000  -0.04064  -0.04062   1.90131
   A39        2.07849  -0.00082   0.00000   0.00031   0.00032   2.07881
   A40        1.87297   0.00018   0.00000   0.00011  -0.00002   1.87295
   A41        2.33173   0.00063   0.00000  -0.00042  -0.00030   2.33143
   A42        1.88077  -0.00482   0.00000  -0.02317  -0.02332   1.85745
   A43        2.21025   0.00166   0.00000   0.00724   0.00732   2.21757
   A44        2.19216   0.00316   0.00000   0.01593   0.01601   2.20817
   A45        1.88128   0.01094   0.00000   0.04434   0.04440   1.92568
   A46        2.12088  -0.00567   0.00000  -0.02332  -0.02335   2.09753
   A47        2.28103  -0.00527   0.00000  -0.02102  -0.02105   2.25997
    D1        1.05043   0.00070   0.00000   0.00762   0.00829   1.05872
    D2       -2.09118   0.00070   0.00000   0.00761   0.00828  -2.08290
    D3       -3.14159   0.00000   0.00000   0.00001   0.00002  -3.14157
    D4       -0.00001   0.00000   0.00000   0.00000   0.00000  -0.00000
    D5       -1.05041  -0.00070   0.00000  -0.00761  -0.00827  -1.05868
    D6        2.09117  -0.00070   0.00000  -0.00762  -0.00829   2.08288
    D7       -0.00001   0.00000   0.00000   0.00001   0.00001  -0.00000
    D8        3.14159  -0.00000   0.00000  -0.00004  -0.00004   3.14156
    D9        3.14159   0.00000   0.00000   0.00002   0.00002  -3.14157
   D10        0.00001  -0.00000   0.00000  -0.00003  -0.00003  -0.00002
   D11       -3.14159   0.00000   0.00000   0.00002   0.00002  -3.14156
   D12        0.00000   0.00000   0.00000   0.00003   0.00003   0.00003
   D13       -0.00000   0.00000   0.00000   0.00001   0.00001   0.00001
   D14        3.14158   0.00000   0.00000   0.00002   0.00002  -3.14159
   D15       -3.14158  -0.00000   0.00000  -0.00005  -0.00005   3.14155
   D16        0.00001  -0.00000   0.00000  -0.00005  -0.00005  -0.00003
   D17       -0.00000   0.00000   0.00000   0.00000   0.00000   0.00000
   D18       -3.14159   0.00000   0.00000   0.00001   0.00001  -3.14159
   D19        3.14159   0.00000   0.00000   0.00001   0.00001  -3.14158
   D20       -0.00001   0.00000   0.00000   0.00003   0.00003   0.00002
   D21        0.00001  -0.00000   0.00000  -0.00003  -0.00003  -0.00002
   D22        3.14159  -0.00000   0.00000  -0.00001  -0.00001   3.14158
   D23        0.00000   0.00000   0.00000   0.00003   0.00003   0.00003
   D24       -3.14159   0.00000   0.00000   0.00005   0.00005  -3.14154
   D25        3.14159   0.00000   0.00000   0.00003   0.00003  -3.14156
   D26       -0.00000   0.00000   0.00000   0.00005   0.00005   0.00005
   D27       -3.14159  -0.00000   0.00000  -0.00007  -0.00007   3.14152
   D28       -0.00000  -0.00000   0.00000  -0.00004  -0.00004  -0.00005
   D29       -0.00000  -0.00000   0.00000  -0.00009  -0.00009  -0.00009
   D30        3.14159  -0.00000   0.00000  -0.00006  -0.00006   3.14152
   D31       -0.00001   0.00000   0.00000   0.00009   0.00009   0.00008
   D32        3.14159   0.00000   0.00000   0.00011   0.00011  -3.14149
   D33       -3.14159   0.00000   0.00000   0.00007   0.00007  -3.14152
   D34        0.00001   0.00000   0.00000   0.00004   0.00004   0.00004
   D35        0.00001   0.00000   0.00000   0.00002   0.00002   0.00003
   D36        3.14159   0.00000   0.00000   0.00001   0.00001  -3.14158
   D37       -3.14159   0.00000   0.00000   0.00005   0.00005  -3.14154
   D38       -0.00001   0.00000   0.00000   0.00004   0.00004   0.00003
   D39        3.14158  -0.00000   0.00000  -0.00005  -0.00005   3.14153
   D40        1.08711  -0.00129   0.00000  -0.01144  -0.01129   1.07583
   D41       -1.08712   0.00128   0.00000   0.01133   0.01118  -1.07594
   D42       -0.00001   0.00000   0.00000   0.00002   0.00002   0.00000
   D43       -3.14159  -0.00000   0.00000  -0.00001  -0.00001   3.14159
   D44        3.14159   0.00000   0.00000   0.00002   0.00002  -3.14157
   D45        0.00001   0.00000   0.00000   0.00000   0.00000   0.00002
   D46       -3.14159  -0.00000   0.00000  -0.00001  -0.00001   3.14159
   D47        1.08698  -0.00120   0.00000  -0.01062  -0.01047   1.07651
   D48       -1.08698   0.00120   0.00000   0.01063   0.01048  -1.07650
   D49        0.00001  -0.00000   0.00000  -0.00002  -0.00002  -0.00001
   D50        3.14159  -0.00000   0.00000  -0.00001  -0.00001   3.14157
   D51        3.14159  -0.00000   0.00000  -0.00000  -0.00000   3.14159
   D52       -0.00002   0.00000   0.00000   0.00001   0.00001  -0.00001
   D53       -0.00000   0.00000   0.00000   0.00001   0.00001   0.00000
   D54       -3.14159   0.00000   0.00000   0.00000   0.00000  -3.14159
   D55       -3.14158  -0.00000   0.00000  -0.00000  -0.00000  -3.14158
   D56        0.00002  -0.00000   0.00000  -0.00000  -0.00000   0.00001
         Item               Value     Threshold  Converged?
 Maximum Force            0.025856     0.000450     NO 
 RMS     Force            0.005879     0.000300     NO 
 Maximum Displacement     0.135660     0.001800     NO 
 RMS     Displacement     0.041260     0.001200     NO 
 Predicted change in Energy=-6.754249D-03
 Lowest energy point so far.  Saving SCF results.
 GradGradGradGradGradGradGradGradGradGradGradGradGradGradGradGradGradGrad

 Leave Link  103 at Fri May 24 13:59:49 2024, MaxMem=   104857600 cpu:              10.3 elap:               5.4
 (Enter /software/spackages_v0_21_prod/apps/linux-ubuntu22.04-zen2/gcc-13.2.0/gaussian_sse4-16-C-g6jkfwqig4o4stofyyxv7ma3rrfxhpfk/g16/l202.exe)
                          Input orientation:                          
 ---------------------------------------------------------------------
 Center     Atomic      Atomic             Coordinates (Angstroms)
 Number     Number       Type             X           Y           Z
 ---------------------------------------------------------------------
      1          6           0        3.224771    1.347006    0.872026
      2          7           0        2.531799    0.300674    0.108091
      3          6           0        1.156824    0.128767    0.042860
      4          6           0        0.121939    0.855383    0.645836
      5          6           0       -1.187589    0.459945    0.407137
      6          6           0       -1.471642   -0.658501   -0.431290
      7          8           0       -2.818724   -0.944191   -0.584481
      8          6           0       -3.190917   -2.062680   -1.418615
      9          6           0       -0.442609   -1.373009   -1.024785
     10          8           0       -2.299482    1.090137    0.940256
     11          6           0       -2.096560    2.232122    1.800322
     12          6           0        0.893088   -0.988395   -0.795611
     13          6           0        2.160693   -1.496003   -1.242883
     14          6           0        3.126244   -0.689859   -0.674907
     15          1           0        3.005378    1.268948    1.942978
     16          1           0        4.299989    1.228705    0.730489
     17          1           0        2.937701    2.347090    0.527663
     18          1           0        0.340399    1.701545    1.280012
     19          1           0       -4.283020   -2.096146   -1.391804
     20          1           0       -2.799125   -3.016518   -1.039575
     21          1           0       -2.867186   -1.934178   -2.460568
     22          1           0       -0.650845   -2.221273   -1.661028
     23          1           0       -3.097153    2.557197    2.095731
     24          1           0       -1.594904    3.061965    1.283538
     25          1           0       -1.526935    1.979155    2.705249
     26          1           0        2.330019   -2.338844   -1.893043
     27          1           0        4.197858   -0.739041   -0.763590
 ---------------------------------------------------------------------
                    Distance matrix (angstroms):
                    1          2          3          4          5
     1  C    0.000000
     2  N    1.469223   0.000000
     3  C    2.539296   1.387215   0.000000
     4  C    3.149670   2.530671   1.400906   0.000000
     5  C    4.524590   3.734788   2.395547   1.388601   0.000000
     6  C    5.270388   4.151926   2.784501   2.447764   1.426383
     7  O    6.625317   5.536916   4.165306   3.660552   2.369706
     8  C    7.618007   6.376970   5.083424   4.873609   3.702746
     9  C    4.944294   3.596071   2.439955   2.841728   2.442359
    10  O    5.530643   4.965584   3.698054   2.450525   1.384797
    11  C    5.473730   5.293000   4.254090   2.854818   2.430598
    12  C    3.697548   2.272389   1.421493   2.464134   2.805977
    13  C    3.699703   2.278354   2.302339   3.640438   4.214177
    14  C    2.559595   1.395566   2.250323   3.627393   4.593694
    15  H    1.095976   2.128061   2.885761   3.188704   4.538091
    16  H    1.090928   2.091678   3.400322   4.195550   5.550591
    17  H    1.095976   2.128055   2.885743   3.188678   4.538046
    18  H    2.934578   2.852731   2.161186   1.079766   2.153655
    19  H    8.564295   7.378089   6.049827   5.680419   4.399032
    20  H    7.679965   6.382761   5.168560   5.134670   4.095829
    21  H    7.680122   6.382915   5.168708   5.134809   4.095925
    22  H    5.845458   4.429359   3.419589   3.922324   3.428459
    23  H    6.552003   6.381827   5.311108   3.919301   3.300947
    24  H    5.132221   5.102557   4.208912   2.867616   2.775697
    25  H    5.132156   5.102534   4.208897   2.867548   2.775693
    26  H    4.693791   3.318479   3.348614   4.639462   5.049516
    27  H    2.823780   2.148625   3.263640   4.598020   5.640143
                    6          7          8          9         10
     6  C    0.000000
     7  O    1.385538   0.000000
     8  C    2.429492   1.444066   0.000000
     9  C    1.386242   2.454318   2.860759   0.000000
    10  O    2.371537   2.594787   4.037224   3.657383   0.000000
    11  C    3.704905   4.037050   5.477636   4.869677   1.443961
    12  C    2.415266   3.718074   4.268643   1.408735   4.186410
    13  C    3.814964   5.052978   5.384397   2.615315   5.598872
    14  C    4.604442   5.951093   6.507246   3.650454   5.934276
    15  H    5.421801   6.723556   7.797059   5.260814   5.401756
    16  H    6.182476   7.558221   8.459641   5.687015   6.604258
    17  H    5.421759   6.723527   7.797052   5.260772   5.401689
    18  H    3.432473   4.522866   5.824274   3.921489   2.730976
    19  H    3.300493   2.030501   1.092945   3.925097   4.418747
[...]
    18  H    2.537388   3.439808   4.458908   4.172293   2.781285
    19  H    5.823432   5.319077   6.471805   7.576542   8.679498
    20  H    6.008103   4.193485   5.173010   6.356896   7.770134
    21  H    6.008204   4.193914   5.173441   6.357355   7.973025
    22  H    5.821539   2.158487   2.946426   4.203062   6.192766
    23  H    1.090358   6.066723   7.428608   7.552471   6.228620
    24  H    1.097941   5.165994   6.400911   6.328396   4.961259
    25  H    1.097938   5.166188   6.401121   6.328556   4.628699
    26  H    7.354797   2.256572   1.077264   2.189842   5.285749
    27  H    7.423200   3.326692   2.226908   1.077418   3.565111
                   16         17         18         19         20
    16  H    0.000000
    17  H    1.778034   0.000000
    18  H    4.033421   2.781092   0.000000
    19  H    9.436873   8.679358   6.550533   0.000000
    20  H    8.426686   7.972415   6.101692   1.788878   0.000000
    21  H    8.427111   7.770404   6.102091   1.788869   1.786335
    22  H    6.483782   6.192566   4.996804   3.627031   2.343555
    23  H    7.633774   6.228211   3.622631   5.955790   6.405048
    24  H    6.181021   4.628295   2.340779   6.406971   6.599429
    25  H    6.181117   4.960835   2.340587   6.407018   6.353103
    26  H    4.825678   5.285693   5.505064   6.629122   5.221766
    27  H    2.457113   3.565201   5.012465   8.614961   7.347478
                   21         22         23         24         25
    21  H    0.000000
    22  H    2.343809   0.000000
    23  H    6.405049   6.548980   0.000000
    24  H    6.353057   6.101403   1.788556   0.000000
    25  H    6.599727   6.101669   1.788560   1.787348   0.000000
    26  H    5.222160   3.002167   8.322918   7.369296   7.369536
    27  H    7.347941   5.163749   8.503867   7.210141   7.210293
                   26         27
    26  H    0.000000
    27  H    2.706444   0.000000
 Symmetry turned off by external request.
 Stoichiometry    C11H13NO2
 Framework group  C1[X(C11H13NO2)]
 Deg. of freedom    75
 Full point group                 C1      NOp   1
 Rotational constants (GHZ):           1.0399733           0.5254294           0.3514091
 Leave Link  202 at Fri May 24 14:04:02 2024, MaxMem=   104857600 cpu:               0.3 elap:               0.1
 (Enter /software/spackages_v0_21_prod/apps/linux-ubuntu22.04-zen2/gcc-13.2.0/gaussian_sse4-16-C-g6jkfwqig4o4stofyyxv7ma3rrfxhpfk/g16/l601.exe)
 Copying SCF densities to generalized density rwf, IOpCl= 0 IROHF=0.

 **********************************************************************

            Population analysis using the SCF Density.

 **********************************************************************

 Alpha  occ. eigenvalues --  -19.05686 -19.05104 -14.29750 -10.17655 -10.17314
 Alpha  occ. eigenvalues --  -10.17070 -10.16940 -10.16800 -10.14664 -10.14618
 Alpha  occ. eigenvalues --  -10.11867 -10.11351 -10.11205 -10.10248  -1.05052
 Alpha  occ. eigenvalues --   -1.03093  -0.97781  -0.83811  -0.79297  -0.74627
 Alpha  occ. eigenvalues --   -0.73374  -0.70029  -0.68664  -0.67476  -0.60318
 Alpha  occ. eigenvalues --   -0.57845  -0.56574  -0.52826  -0.50976  -0.49951
 Alpha  occ. eigenvalues --   -0.46350  -0.46228  -0.45638  -0.44936  -0.44669
 Alpha  occ. eigenvalues --   -0.44623  -0.42568  -0.41310  -0.40530  -0.39399
 Alpha  occ. eigenvalues --   -0.38982  -0.38826  -0.35619  -0.34668  -0.31467
 Alpha  occ. eigenvalues --   -0.30647  -0.30100  -0.27093  -0.25492  -0.18777
 Alpha  occ. eigenvalues --   -0.17734
 Alpha virt. eigenvalues --    0.01125   0.04952   0.08976   0.09687   0.11795
 Alpha virt. eigenvalues --    0.12618   0.13194   0.14098   0.15884   0.16171
 Alpha virt. eigenvalues --    0.16997   0.17662   0.17831   0.17995   0.18921
 Alpha virt. eigenvalues --    0.19362   0.19501   0.20045   0.20849   0.21147
 Alpha virt. eigenvalues --    0.25259   0.26765   0.28570   0.31575   0.33801
 Alpha virt. eigenvalues --    0.37404   0.41134   0.43143   0.45363   0.49738
 Alpha virt. eigenvalues --    0.58637   0.61887   0.64092   0.66412   0.67243
 Alpha virt. eigenvalues --    0.67758   0.69138   0.69914   0.70796   0.71520
 Alpha virt. eigenvalues --    0.72774   0.74604   0.74738   0.76345   0.76742
 Alpha virt. eigenvalues --    0.79757   0.81122   0.81545   0.86203   0.86431
 Alpha virt. eigenvalues --    0.87629   0.89045   0.89132   0.90786   0.92270
 Alpha virt. eigenvalues --    0.93396   0.97248   0.98593   0.99926   1.01524
 Alpha virt. eigenvalues --    1.01582   1.01721   1.02994   1.03813   1.04706
 Alpha virt. eigenvalues --    1.05585   1.07504   1.11477   1.15889   1.17839
 Alpha virt. eigenvalues --    1.20332   1.20679   1.23347   1.26403   1.27933
 Alpha virt. eigenvalues --    1.28114   1.35343   1.41103   1.47353   1.52578
 Alpha virt. eigenvalues --    1.52929   1.57134   1.57847   1.60676   1.65047
 Alpha virt. eigenvalues --    1.65311   1.70450   1.73451   1.76210   1.78057
 Alpha virt. eigenvalues --    1.84370   1.88924   1.98564   2.05668   2.10171
 Alpha virt. eigenvalues --    2.15266   2.20403   2.45877   2.91031   3.21715
 Alpha virt. eigenvalues --    3.54483
          Condensed to atoms (all electrons):
               1          2          3          4          5          6
     1  C    5.087556   0.271486  -0.049033   0.001451   0.000093  -0.000003
     2  N    0.271486   7.275219   0.235197  -0.047720   0.003501  -0.000252
     3  C   -0.049033   0.235197   5.088522   0.290541  -0.002679  -0.036139
     4  C    0.001451  -0.047720   0.290541   5.549484   0.237538  -0.080908
     5  C    0.000093   0.003501  -0.002679   0.237538   5.106914   0.362737
     6  C   -0.000003  -0.000252  -0.036139  -0.080908   0.362737   5.108603
     7  O   -0.000000  -0.000000  -0.000266   0.002984  -0.052981   0.283154
     8  C    0.000000  -0.000000   0.000003  -0.000093   0.004541  -0.067331
     9  C   -0.000068   0.006168  -0.049181  -0.036455  -0.080065   0.252695
    10  O   -0.000000  -0.000000   0.003518  -0.062317   0.283916  -0.052594
    11  C   -0.000001  -0.000001   0.000333  -0.011740  -0.066917   0.004480
    12  C    0.002233  -0.058200   0.415079  -0.039670  -0.032783  -0.015021
    13  C    0.003303  -0.090017  -0.116944   0.006538  -0.000167   0.003551
    14  C   -0.036136   0.320739  -0.132778   0.002238  -0.000051  -0.000150
    15  H    0.360279  -0.038834  -0.001511   0.001189  -0.000008  -0.000001
    16  H    0.368547  -0.027682   0.002948   0.000008  -0.000001   0.000000
    17  H    0.360279  -0.038835  -0.001512   0.001191  -0.000008  -0.000001
    18  H    0.002238  -0.005466  -0.051558   0.402832  -0.059874   0.003146
    19  H    0.000000  -0.000000   0.000000   0.000001   0.000002   0.003230
    20  H    0.000000   0.000000  -0.000000  -0.000002  -0.000221  -0.005488
    21  H    0.000000   0.000000  -0.000000  -0.000002  -0.000221  -0.005485
    22  H    0.000001  -0.000035   0.004508  -0.000216   0.003039  -0.060709
    23  H    0.000000  -0.000000   0.000001   0.000047   0.003218   0.000007
    24  H   -0.000001  -0.000000  -0.000203   0.005107  -0.005556  -0.000227
    25  H   -0.000001  -0.000000  -0.000202   0.005104  -0.005559  -0.000228
    26  H   -0.000037   0.002456   0.003507  -0.000082  -0.000000   0.000032
    27  H   -0.000826  -0.035906   0.003450  -0.000053   0.000001   0.000001
               7          8          9         10         11         12
     1  C   -0.000000   0.000000  -0.000068  -0.000000  -0.000001   0.002233
     2  N   -0.000000  -0.000000   0.006168  -0.000000  -0.000001  -0.058200
     3  C   -0.000266   0.000003  -0.049181   0.003518   0.000333   0.415079
     4  C    0.002984  -0.000093  -0.036455  -0.062317  -0.011740  -0.039670
     5  C   -0.052981   0.004541  -0.080065   0.283916  -0.066917  -0.032783
     6  C    0.283154  -0.067331   0.252695  -0.052594   0.004480  -0.015021
     7  O    8.202925   0.261229  -0.062995   0.000926   0.000032   0.003649
     8  C    0.261229   5.113609  -0.011660   0.000031  -0.000001   0.000372
     9  C   -0.062995  -0.011660   5.529618   0.002899  -0.000096   0.328705
    10  O    0.000926   0.000031   0.002899   8.198399   0.260161  -0.000249
    11  C    0.000032  -0.000001  -0.000096   0.260161   5.115121   0.000006
    12  C    0.003649   0.000372   0.328705  -0.000249   0.000006   5.173859
    13  C   -0.000000  -0.000002  -0.035059  -0.000000  -0.000000   0.434420
    14  C    0.000000   0.000000   0.003731   0.000000   0.000000  -0.112335
    15  H    0.000000   0.000000  -0.000001   0.000000  -0.000001   0.000144
    16  H   -0.000000   0.000000   0.000001  -0.000000  -0.000000  -0.000132
    17  H    0.000000   0.000000  -0.000001   0.000000  -0.000001   0.000144
    18  H   -0.000004   0.000001  -0.000338  -0.006856   0.001929   0.003941
    19  H   -0.025795   0.369687   0.000063  -0.000001  -0.000000   0.000003
    20  H   -0.031458   0.327015   0.005105  -0.000002   0.000000  -0.000217
    21  H   -0.031458   0.327022   0.005099  -0.000002   0.000000  -0.000216
    22  H   -0.006763   0.001647   0.401018  -0.000005   0.000001  -0.043571
    23  H   -0.000001  -0.000000   0.000001  -0.025652   0.370242   0.000000
    24  H   -0.000002   0.000000  -0.000002  -0.031359   0.326443  -0.000001
    25  H   -0.000002   0.000000  -0.000002  -0.031359   0.326447  -0.000001
    26  H    0.000000  -0.000000  -0.001673  -0.000000   0.000000  -0.032357
    27  H   -0.000000  -0.000000  -0.000065  -0.000000  -0.000000   0.003131
              13         14         15         16         17         18
     1  C    0.003303  -0.036136   0.360279   0.368547   0.360279   0.002238
     2  N   -0.090017   0.320739  -0.038834  -0.027682  -0.038835  -0.005466
     3  C   -0.116944  -0.132778  -0.001511   0.002948  -0.001512  -0.051558
     4  C    0.006538   0.002238   0.001189   0.000008   0.001191   0.402832
     5  C   -0.000167  -0.000051  -0.000008  -0.000001  -0.000008  -0.059874
     6  C    0.003551  -0.000150  -0.000001   0.000000  -0.000001   0.003146
     7  O   -0.000000   0.000000   0.000000  -0.000000   0.000000  -0.000004
     8  C   -0.000002   0.000000   0.000000   0.000000   0.000000   0.000001
     9  C   -0.035059   0.003731  -0.000001   0.000001  -0.000001  -0.000338
    10  O   -0.000000   0.000000   0.000000  -0.000000   0.000000  -0.006856
    11  C   -0.000000   0.000000  -0.000001  -0.000000  -0.000001   0.001929
    12  C    0.434420  -0.112335   0.000144  -0.000132   0.000144   0.003941
    13  C    5.138413   0.533241  -0.000071   0.000220  -0.000071  -0.000105
    14  C    0.533241   5.000468   0.001119  -0.002896   0.001119   0.000018
    15  H   -0.000071   0.001119   0.530644  -0.026304  -0.040606   0.000507
    16  H    0.000220  -0.002896  -0.026304   0.496667  -0.026301  -0.000020
    17  H   -0.000071   0.001119  -0.040606  -0.026301   0.530638   0.000508
    18  H   -0.000105   0.000018   0.000507  -0.000020   0.000508   0.524350
    19  H   -0.000000   0.000000  -0.000000  -0.000000  -0.000000  -0.000000
    20  H   -0.000002   0.000000  -0.000000   0.000000   0.000000  -0.000000
    21  H   -0.000002   0.000000   0.000000   0.000000  -0.000000  -0.000000
    22  H   -0.003466   0.000030   0.000000  -0.000000   0.000000   0.000002
    23  H   -0.000000   0.000000  -0.000000   0.000000  -0.000000  -0.000071
    24  H    0.000000   0.000000  -0.000002  -0.000000   0.000005   0.002573
    25  H    0.000000   0.000000   0.000005  -0.000000  -0.000002   0.002575
    26  H    0.395635  -0.035763   0.000001  -0.000001   0.000001   0.000001
    27  H   -0.027129   0.380080  -0.000011   0.002508  -0.000011   0.000000
              19         20         21         22         23         24
     1  C    0.000000   0.000000   0.000000   0.000001   0.000000  -0.000001
     2  N   -0.000000   0.000000   0.000000  -0.000035  -0.000000  -0.000000
     3  C    0.000000  -0.000000  -0.000000   0.004508   0.000001  -0.000203
     4  C    0.000001  -0.000002  -0.000002  -0.000216   0.000047   0.005107
     5  C    0.000002  -0.000221  -0.000221   0.003039   0.003218  -0.005556
     6  C    0.003230  -0.005488  -0.005485  -0.060709   0.000007  -0.000227
     7  O   -0.025795  -0.031458  -0.031458  -0.006763  -0.000001  -0.000002
     8  C    0.369687   0.327015   0.327022   0.001647  -0.000000   0.000000
     9  C    0.000063   0.005105   0.005099   0.401018   0.000001  -0.000002
    10  O   -0.000001  -0.000002  -0.000002  -0.000005  -0.025652  -0.031359
    11  C   -0.000000   0.000000   0.000000   0.000001   0.370242   0.326443
    12  C    0.000003  -0.000217  -0.000216  -0.043571   0.000000  -0.000001
    13  C   -0.000000  -0.000002  -0.000002  -0.003466  -0.000000   0.000000
    14  C    0.000000   0.000000   0.000000   0.000030   0.000000   0.000000
    15  H   -0.000000  -0.000000   0.000000   0.000000  -0.000000  -0.000002
    16  H   -0.000000   0.000000   0.000000  -0.000000   0.000000  -0.000000
    17  H   -0.000000   0.000000  -0.000000   0.000000  -0.000000   0.000005
    18  H   -0.000000  -0.000000  -0.000000   0.000002  -0.000071   0.002573
    19  H    0.497867  -0.030162  -0.030172  -0.000062  -0.000000   0.000000
    20  H   -0.030162   0.590565  -0.048370   0.002533   0.000000  -0.000000
    21  H   -0.030172  -0.048370   0.590575   0.002532   0.000000   0.000000
    22  H   -0.000062   0.002533   0.002532   0.516637  -0.000000  -0.000000
    23  H   -0.000000   0.000000   0.000000  -0.000000   0.493544  -0.030023
    24  H    0.000000  -0.000000   0.000000  -0.000000  -0.030023   0.591749
    25  H    0.000000   0.000000  -0.000000  -0.000000  -0.030027  -0.048375
    26  H    0.000000  -0.000000  -0.000000   0.000935   0.000000  -0.000000
    27  H   -0.000000   0.000000   0.000000   0.000000  -0.000000   0.000000
              25         26         27
     1  C   -0.000001  -0.000037  -0.000826
     2  N   -0.000000   0.002456  -0.035906
     3  C   -0.000202   0.003507   0.003450
     4  C    0.005104  -0.000082  -0.000053
     5  C   -0.005559  -0.000000   0.000001
     6  C   -0.000228   0.000032   0.000001
     7  O   -0.000002   0.000000  -0.000000
     8  C    0.000000  -0.000000  -0.000000
     9  C   -0.000002  -0.001673  -0.000065
    10  O   -0.031359  -0.000000  -0.000000
    11  C    0.326447   0.000000  -0.000000
    12  C   -0.000001  -0.032357   0.003131
    13  C    0.000000   0.395635  -0.027129
    14  C    0.000000  -0.035763   0.380080
    15  H    0.000005   0.000001  -0.000011
    16  H   -0.000000  -0.000001   0.002508
    17  H   -0.000002   0.000001  -0.000011
    18  H    0.002575   0.000001   0.000000
    19  H    0.000000   0.000000  -0.000000
    20  H    0.000000  -0.000000   0.000000
    21  H   -0.000000  -0.000000   0.000000
    22  H   -0.000000   0.000935   0.000000
    23  H   -0.030027   0.000000  -0.000000
    24  H   -0.048375  -0.000000   0.000000
    25  H    0.591757  -0.000000   0.000000
    26  H   -0.000000   0.501520  -0.001461
    27  H    0.000000  -0.001461   0.480022
 Mulliken charges:
               1
     1  C   -0.371359
     2  N   -0.771819
     3  C    0.394399
     4  C   -0.226994
     5  C    0.301592
     6  C    0.302901
     7  O   -0.543173
     8  C   -0.326069
     9  C   -0.257443
    10  O   -0.539454
    11  C   -0.326438
    12  C   -0.030932
    13  C   -0.242284
    14  C    0.077326
    15  H    0.213463
    16  H    0.212440
    17  H    0.213465
    18  H    0.179673
    19  H    0.215339
    20  H    0.190706
    21  H    0.190702
    22  H    0.181943
    23  H    0.218713
    24  H    0.189873
    25  H    0.189868
    26  H    0.167290
    27  H    0.196271
 Sum of Mulliken charges =  -0.00000
 Mulliken charges with hydrogens summed into heavy atoms:
               1
     1  C    0.268009
     2  N   -0.771819
     3  C    0.394399
     4  C   -0.047321
     5  C    0.301592
     6  C    0.302901
     7  O   -0.543173
     8  C    0.270679
     9  C   -0.075500
    10  O   -0.539454
    11  C    0.272016
    12  C   -0.030932
    13  C   -0.074994
    14  C    0.273597
 Electronic spatial extent (au):  <R**2>=           3111.1877
 Charge=             -0.0000 electrons
 Dipole moment (field-independent basis, Debye):
    X=              2.0889    Y=              1.2587    Z=              0.8589  Tot=              2.5857
 Quadrupole moment (field-independent basis, Debye-Ang):
   XX=            -73.1247   YY=            -72.3494   ZZ=            -79.0939
   XY=              5.9236   XZ=              3.8267   YZ=             11.2312
 Traceless Quadrupole moment (field-independent basis, Debye-Ang):
   XX=              1.7313   YY=              2.5066   ZZ=             -4.2379
   XY=              5.9236   XZ=              3.8267   YZ=             11.2312
 Octapole moment (field-independent basis, Debye-Ang**2):
  XXX=             51.1488  YYY=             30.0717  ZZZ=             26.4611  XYY=            -16.7485
  XXY=              6.7582  XXZ=              2.3536  XZZ=            -10.7220  YZZ=              9.4321
  YYZ=              5.2886  XYZ=             -9.7034
 Hexadecapole moment (field-independent basis, Debye-Ang**3):
 XXXX=          -2282.0748 YYYY=           -892.5202 ZZZZ=           -578.7908 XXXY=              7.1376
 XXXZ=             47.9593 YYYX=            -52.3931 YYYZ=           -267.8312 ZZZX=             15.9731
 ZZZY=           -291.9519 XXYY=           -503.2801 XXZZ=           -489.4562 YYZZ=           -216.6525
 XXYZ=            -31.7345 YYXZ=             -2.4136 ZZXY=            -27.2215
 N-N= 8.771094510079D+02 E-N=-3.217047218545D+03  KE= 6.231640747616D+02
 No NMR shielding tensors so no spin-rotation constants.
 Leave Link  601 at Fri May 24 14:04:02 2024, MaxMem=   104857600 cpu:               1.1 elap:               0.6
 (Enter /software/spackages_v0_21_prod/apps/linux-ubuntu22.04-zen2/gcc-13.2.0/gaussian_sse4-16-C-g6jkfwqig4o4stofyyxv7ma3rrfxhpfk/g16/l9999.exe)
 Unable to Open any file for archive entry.
 1\1\GINC-ERC-HPC-COMP022\FOpt\RB3LYP\3-21G*\C11H13N1O2\K2255489\24-May
 -2024\0\\#p B3LYP/3-21G* opt, nosymm\\b opt Smile String: CN1C(C=C(C(O
 C)=C2)OC)=C2C=C1\\0,1\C,3.2202064276,1.3399018429,0.8668705915\N,2.527
 1806483,0.299738749,0.1076873484\C,1.1516440987,0.1298690149,0.0440181
 033\C,0.1139405282,0.8550550297,0.6460455497\C,-1.1943060293,0.4648719
 694,0.4112316334\C,-1.4776201093,-0.6580223077,-0.430681885\O,-2.83093
 17754,-0.9378777081,-0.5791905899\C,-3.1866327172,-2.0681063884,-1.422
 9259075\C,-0.4481160894,-1.3680209563,-1.0207824627\O,-2.3135694661,1.
 0899823569,0.9408772039\C,-2.0932023498,2.2389580917,1.8053017132\C,0.
 8878918916,-0.9850122925,-0.7927838432\C,2.1639759328,-1.4883204566,-1
 .237216227\C,3.1319125112,-0.6914848854,-0.676409644\H,2.9967157403,1.
 2569846195,1.9367262999\H,4.2962172489,1.2198065617,0.723747043\H,2.92
 86589516,2.3374174153,0.5184770103\H,0.3307182161,1.7021449268,1.28110
 73017\H,-4.2762613452,-2.1058538888,-1.3992606634\H,-2.7760224505,-3.0
 102405673,-1.0366991015\H,-2.8443482955,-1.9286786474,-2.4567512698\H,
 -0.6600816568,-2.2163011273,-1.6569444485\H,-3.0908547376,2.5647343696
 ,2.1010039571\H,-1.5805318744,3.0535714336,1.2770520692\H,-1.512691018
 3,1.9715055762,2.6980181708\H,2.3310446878,-2.3310024942,-1.8871952194
 \H,4.2050730315,-0.7356202375,-0.7613127336\\Version=ES64L-G16RevC.01\
 HF=-628.6954587\RMSD=2.965e-09\RMSF=2.083e-05\Dipole=0.8218348,0.49522
 18,0.3379182\Quadrupole=1.2871781,1.8635936,-3.1507717,4.4040449,2.845
 0805,8.3501481\PG=C01 [X(C11H13N1O2)]\\@
 The archive entry for this job was punched.


 IF THERE IS ONE WAY BETTER THAN ANOTHER IT IS THE WAY OF NATURE.

                          -- ARISTOTLE
 Job cpu time:       0 days  0 hours 10 minutes  9.8 seconds.
 Elapsed time:       0 days  0 hours  5 minutes  8.6 seconds.
 File lengths (MBytes):  RWF=     72 Int=      0 D2E=      0 Chk=      8 Scr=      8
 Normal termination of Gaussian 16 at Fri May 24 14:04:03 2024.
